# vtk DataFile Version 2.0
time_10.vtk
ASCII
DATASET UNSTRUCTURED_GRID
POINTS   4141  float 
2.6599336664406172e-05        1.0088128644006842e-17        0.0                           
0.25000000000000194           2.5160089224706558e-05        0.0                           
0.5000243603078177            -4.047090656368831e-16        0.0                           
0.75                          2.257453860068528e-05         0.0                           
1.0000215799457666            1.8226266878501593e-18        0.0                           
1.25                          1.9371013311513758e-05        0.0                           
1.5000181523748455            -1.3625117458287806e-15       0.0                           
1.75                          1.548175969148017e-05         0.0                           
2.000014030067117             2.1356967079182675e-17        0.0                           
2.25                          1.090015108021607e-05         0.0                           
2.50000922661099              7.236852536022797e-17         0.0                           
2.75                          5.68052254302622e-06          0.0                           
3.000003819928242             -1.801816446444616e-15        0.0                           
3.25                          1.557249869006391e-17         0.0                           
3.499997859317455             -1.8049949454260573e-17       0.0                           
3.75                          -6.4639280010712536e-06       0.0                           
3.9999913284853186            -2.6002000412004605e-16       0.0                           
4.25                          -1.3185596820418109e-05       0.0                           
4.4999845109302505            -5.347947337062299e-17        0.0                           
4.75                          -2.0181418509064367e-05       0.0                           
4.999977431489327             -8.16425904438649e-17         0.0                           
5.25                          -2.74244103501381e-05         0.0                           
5.499970104860979             2.8962732126741115e-17        0.0                           
5.75                          -3.4932198003518695e-05       0.0                           
5.999962495345065             2.4261685030845288e-17        0.0                           
6.25                          -4.277777797736772e-05        0.0                           
6.499954511578825             -1.5062125242616848e-15       0.0                           
6.75                          2.6525972251563622e-05        0.0                           
7.000025832175295             2.006248371431053e-06         0.0                           
7.250002142617283             2.4289601368921373e-05        0.0                           
7.500023429864772             2.4405095806302977e-06        0.0                           
7.750002600349406             2.151027220746114e-05         0.0                           
8.000020443120754             2.9368722104943072e-06        0.0                           
8.250003111402656             1.8081404708081912e-05        0.0                           
8.500016784057545             3.4674794457080197e-06        0.0                           
8.750003646848825             1.3955154717266345e-05        0.0                           
9.000012425317582             4.003089901830267e-06         0.0                           
9.250004178058715             9.144322104167566e-06         0.0                           
9.500007398824575             4.5173532146963255e-06        0.0                           
9.750004680026905             3.714887853412131e-06         0.0                           
10.000001779084082            4.987867598437576e-06         0.0                           
5.157893613916386e-06         0.299997715816115             0.0                           
0.2499955962973358            0.3000054583610395            0.0                           
0.5000055904626151            0.299991224136738             0.0                           
0.7499889831296355            0.30000584452182133           0.0                           
1.0000059669876264            0.2999844048532114            0.0                           
1.2499820715158692            0.3000062053604978            0.0                           
1.5000063227531322            0.2999773226769107            0.0                           
1.7499749079437508            0.30000655839117996           0.0                           
2.0000066786068613            0.29996999484580256           0.0                           
2.249967493184553             0.3000069290111074            0.0                           
2.500007061294109             0.2999623860538562            0.0                           
2.749959773066148             0.30000734507744625           0.0                           
3.0000074984386935            0.2999544046585345            0.0                           
3.2499516381363915            0.30000783208456894           0.0                           
3.500003752510523             0.3000256149774706            0.0                           
3.7500248741529916            0.3000042802167342            0.0                           
4.000004570858583             0.30002321940876614           0.0                           
4.250022295371614             0.3000051978345006            0.0                           
4.500005530323204             0.3000202336333281            0.0                           
4.750019090003259             0.30000622267305654           0.0                           
5.000006578094897             0.30001656820699085           0.0                           
5.250015188757702             0.3000072964080267            0.0                           
5.500007655083059             0.30001219507577037           0.0                           
5.750010583775639             0.3000083618197455            0.0                           
6.00000870651687              0.3000071434746787            0.0                           
6.250005319651032             0.30000937218615753           0.0                           
6.500009692460224             0.3000014738266835            0.0                           
6.74999946272532              0.30001032196815286           0.0                           
7.0000106241614395            0.29999528306378176           0.0                           
7.24999312022817              0.30001118015211586           0.0                           
7.50001143996346              0.29998867167246235           0.0                           
7.7499863948501035            0.30001193682021965           0.0                           
8.000012176708308             0.2999817505426411            0.0                           
8.249979386696547             0.30001264708749564           0.0                           
8.50001288110466              0.2999745798126077            0.0                           
8.749972136404002             0.30001335654136924           0.0                           
9.000013602107037             0.2999671633364808            0.0                           
9.24996462894977              0.30001411950834744           0.0                           
9.500014395501559             0.29995944722962              0.0                           
9.749956790944914             0.300014991795952             0.0                           
10.000015315531657            0.2999513206101898            0.0                           
2.593833928929106e-05         0.600005614166729             0.0                           
0.2500059966752334            0.6000245164192227            0.0                           
0.5000237235473547            0.6000068451972267            0.0                           
0.7500073067496053            0.60002194625774              0.0                           
1.000020952729269             0.6000082904529879            0.0                           
1.2500088062680592            0.6000187387690931            0.0                           
1.5000175138597083            0.6000098691103694            0.0                           
1.7500104094035396            0.6000148229592633            0.0                           
2.0000133571725867            0.6000114915435094            0.0                           
2.2500120274182676            0.600010190575612             0.0                           
2.5000084937286555            0.6000130758510158            0.0                           
2.7500135844197957            0.6000048856059061            0.0                           
3.00000298013826              0.6000145656423064            0.0                           
3.2500150384457007            0.5999989883659949            0.0                           
3.4999969123384718            0.6000159425049741            0.0                           
3.7500163682839447            0.5999926175302864            0.0                           
3.9999904056783144            0.6000171674021237            0.0                           
4.250017545617221             0.5999858728197723            0.0                           
4.499983558775983             0.6000182719678565            0.0                           
4.750018624959891             0.5999788475560495            0.0                           
4.999976453097114             0.6000193238792656            0.0                           
5.250019675647019             0.599971587857987             0.0                           
5.499969115390371             0.6000203993679638            0.0                           
5.750020777754468             0.599964080810451             0.0                           
5.999961512434037             0.6000215835605186            0.0                           
6.250022017088131             0.5999562523702333            0.0                           
[...]
POINT_DATA  4141
SCALARS Con float 1
LOOKUP_TABLE default
0.00011312471911209238
0.0001214515350400544
0.00013793273232566835
0.00015716889478283686
0.00017887343015111993
0.00020310309210923704
0.00022990072330026168
0.0002592665667486924
0.00029115395338925117
0.0003254684553309344
0.00036206895988972587
0.0004007704643502609
0.000441348305526403
0.0004835433228641935
0.0005270671247224872
0.0005716059752631787
0.0006168226752622325
0.0006623538205775135
0.0007078969656408941
0.0007538664922119415
0.0008053598137958874
0.0008569684128101299
0.0009034151613465273
0.000947579291835947
0.0009917027171088002
0.0010356538246972513
0.0010794955291233966
0.0011233461050089765
0.0011674055169344796
0.0012119405076233768
0.0012572767500498906
0.0013037920808542497
0.0013519107612528988
0.0014020981817288172
0.001454855629579883
0.0015107148335608686
0.0015702313738899694
0.0016339673493939342
0.0017023363045488235
0.001773496262475876
0.0018144722502084869
0.00011484187692044891
0.00012336196481976312
0.00014017567394234868
0.0001597698996984923
0.00018185880115850257
0.00020649230062080084
0.00023370641944800072
0.0002634941882896883
0.000295801679943858
0.0003305274764046763
0.00036752413255928336
0.00040660148666173227
0.0004475316871130535
0.0004900558030448646
0.0005338920474549089
0.0005787468723863907
0.0006243321241977524
0.0006704203081311185
0.0007169353044035388
0.0007650202324740385
0.0008136274398345711
0.0008614099935620786
0.0009077958982541355
0.0009533928018666855
0.0009980249201883241
0.0010422083410125738
0.0010861305961165587
0.0011299991949301656
0.0011740562374976595
0.0012185941582267556
0.001263956023687175
0.0013105330470438638
0.0013587607305818661
0.0014091144469195232
0.001462104655070376
0.0015182716428627774
0.0015781789646585585
0.0016423962843909292
0.001711341782430071
0.0017832039319447704
0.0018246322216159462
0.0001138723617961259
0.00012238920064653168
0.0001392391031759169
0.00015891893894304365
0.00018113623206808313
0.00020593836695060124
0.00023335786545116894
0.0002633839854693668
0.0002959589393177481
0.0003309776708753889
0.00036828978177879545
0.0004077036188947591
0.0004489926960439005
0.0004919049044346629
0.0005361758158337522
0.0005815488159341773
0.0006278124341814049
0.0006748436359412591
0.0007228042182638139
0.0007704304047559759
0.0008159791769040956
0.0008614146255536378
0.0009081993043437794
0.0009543368467377268
0.0009995600576982813
0.0010440084619424623
0.0010879770801031931
0.0011317309609686914
0.0011755556587283132
0.0012197707885118745
0.0012647380919539725
0.0013108629852913584
0.0013585932269808523
0.0014084160015005029
0.0014608540592290433
0.0015164610880941535
0.0015758155877229163
0.0016395038514888363
0.0017079645997384383
0.0017793951993697829
0.001820589751837223
0.00011219245512173159
0.00012072260187081324
0.0001376404775016435
0.00015746222178262664
0.00017989328689607472
0.00020497587495860793
0.00023273662556081657
0.00026315827053014374
0.0002961761690356298
0.00033167840103414986
0.0003695080959515776
0.00040946805680680857
0.0004513278708549263
0.0004948338075009333
0.0005397217265959927
0.0005857331102181311
0.0006326244656842342
0.0006801678474922965
0.0007277940180495516
0.0007747785991963343
0.0008210554240382689
0.0008668610815264152
0.0009125321691944082
0.0009581886974399747
0.00100323948737507
0.0010475787149006731
0.0010913341087272286
0.0011347438591841359
0.0011780953811310931
0.0012217208877761871
0.0012659967938020763
0.0013113437717379747
0.0013582254825693855
0.001407146221554686
0.0014586476801035655
0.0015133048722357938
0.0015717205042104642
0.0016345084786436748
0.0017021385318720247
0.0017728588665576982
0.001813707310364451
0.00010981747650686871
0.00011836715888183141
0.0001353853307412614
0.0001554113194213013
0.0001781467885253717
0.00020362680329691552
0.00023186942163630418
0.0002628478202999559
0.0002964870634947866
0.00033266439473839365
0.0003712116882441985
0.00041192005084529046
0.0004545465123829809
0.0004988224253670415
0.0005444624324086255
0.0005911696760735316
0.0006386312455472924
0.0006864553352168344
0.0007341970364762145
0.0007814849575549679
0.0008281096165203825
0.0008741512266246321
0.0009197455036724022
0.0009648503931821645
0.0010093903348131132
0.0010532475166904198
0.00109647467790309
0.0011392507940304766
0.0011818418810967614
0.0012245773015963218
0.0012678409615357925
0.0013120667864187988
0.0013577357180051429
0.0014053728363484618
0.0014555442420628893
0.0015088533487940424
0.0015659357233690178
0.0016274431072507425
0.0016938900170017628
0.0017635948900730804
0.0018039431157211112
0.00010672623907303763
0.00011530499684695537
0.00013245941644595013
0.00015275593575876968
0.00017589070142781064
0.00020188916822660977
0.00023075802190119273
0.0002624576983777701
0.0002968993185044534
0.00033394500501264046
0.00037341019467969166
0.0004150678290034936
0.00045865414555987727
0.0005038753529363103
0.0005504135220576932
0.0005979293474893062
0.0006460552415094748
0.0006944020827910118
0.000742586789655067
0.0007902870523623271
0.0008373142407707524
0.0008835970852807181
0.0009291275722002208
0.0009739018023618701
0.0010178789621006806
0.00106105622462191
0.0011034940773176143
0.0011453532988034596
0.0011868839233811163
0.0012284109678026797
0.0012703235769952188
0.001313068355531819
0.001357144853245691
0.0014031020664683786
0.001451535262147596
0.0015030826087152876
0.0015584205580678953
0.0016182486399030857
0.0016831385015732565
0.0017515001100256123
0.0017911835844284635
0.00010289740300398865
0.00011151672257531728
0.00012884770112828235
0.0001494858385035616
0.00017311969285545805
0.00019976251904321805
0.00022940677485738518
0.0002619969986370685
0.0002974267935116044
0.0003355390234775126
0.0003761278451991236
0.00041894243023508774
0.000463692102125311
0.0005100522789244319
0.0005576703807018847
0.0006061706889758852
0.0006551620435734741
0.0007042516871912913
0.0007530715568077633
0.0008013140273912973
0.0008487549713807169
0.0008952584495752634
0.0009407529335450458
0.0009852016717755384
0.0010285981150346547
0.0010709717518834648
0.0011124160016191859
0.0011531003190041744
0.0011932760288289376
0.0012332711908544822
0.0012734836581449072
0.0013143750019845438
0.0013564659015259516
0.0014003326065924237
0.0014466040167599936
0.0014959588517344878
0.0015491218292315045
0.0016068495258234792
0.0016697826517742384
0.0017364446934047722
0.001775281827385085
9.831206862707877e-05
0.00010698542717820335
0.00012453740206902866
0.0001455930162791461
0.0001698307639102078
0.00019724899817106375
0.00022782317802662612
0.0002614790031474867
0.0002980893048481237
0.00033747399625363766
0.0003794017577308987
0.0004235934194104036
0.0004697269066030145
0.0005174435132069907
0.0005663552639319034
0.0006160540433358025
0.0006661235995561092
0.0007161565723319219
0.0007657763340158545
0.0008146591709030803
0.0008625510744815696
0.0009092715163776229
0.0009547067112488955
0.0009987998244252831
0.0010415448678224321
0.0010829917742383594
0.0011232542975291918
0.0011625194549897198
0.0012010509802249732
0.0012391887636181965
0.0012773452037134812
0.001316001009278222
0.0013557015216742099
0.0013970538628140475
0.001440724771058441
0.001487438724797608
0.0015379752926818707
0.001593156522544141
0.0016537034824048084
0.0017182761119837265
0.001756065235325823
9.295849003054572e-05
0.00010170070803367981
0.00011952124952374108
0.00014107403156630102
0.00016602464619285147
0.00019435382375642053
0.00022601748399633762
0.0002609199499935569
0.00029891054289652537
0.0003397830992472555
0.0003832772391544872
0.0004290814921258414
0.0004768383776098895
0.0005261514642351664
0.0005765945562018808
0.0006277232799881571
0.0006790895867759491
0.0007302591385960807
0.0007808303827164309
0.0008304526775121809
0.0008788396905907368
0.0009257760983077379
0.0009711178971599262
0.0010147895560025265
0.0010567823553544126
0.0010971551627111918
0.0011360381482593417
0.0011736362003512588
0.0012102310462187252
0.0012461808470642577
0.0012819182038616072
0.001317947498937278
0.0013548425043529548
0.0013932446934292486
0.0014338623166685173
0.001477469957012827
0.0015249075553018176
0.001577069922821499
0.0016347688618501815
0.001696824370248171
0.0017333405827515925
8.683766374024287e-05
9.566365915451788e-05
0.00011380127287334175
0.00013593252998076138
0.00016170701191416226
0.0001910852142418556
0.00022400139986566072
0.0002603365997700273
0.00029991456458472335
0.0003425005570751849
0.000387802002692284
0.0004354713048701435
0.0004851111228531144
0.0005362823117916935
0.0005885146413291818
0.0006413203123410037
0.0006942100557022304
0.0007467111205181859
0.0007983857512532112
0.000848848108180641
0.0008977776230525167
0.0009449275091448768
0.000990128679128848
0.001033290620414785
0.0010744010732848545
0.001113526046503977
0.0011508102711313254
0.0011864777189012235
0.0012208314421625042
0.0012542525351144352
0.0012871984327392227
0.001320201196204977
0.001353866307412841
0.0013888723818165924
0.0014259718727471077
0.0014659925477410148
0.0015098387656425937
0.0015584838308605083
0.0016128392368377402
0.001671908987425827
0.0017069016936126522
7.997004430479594e-05
8.889272658911831e-05
0.00010739307604510625
0.00013018181314130878
0.00015688931829837462
0.00018745355388660864
0.000221785710830163
0.0002597425038793913
0.0003011209482550537
0.0003456559434915641
0.00039301992447415927
0.00044282513342606435
0.0004946289938869398
0.0005479428825464835
0.0006022443420358374
0.0006569924812029748
0.0007116459226401357
0.0007656822259906989
0.000818617272992899
0.0008700229145516208
0.0009195413149315438
0.0009668950985803046
0.001011893277800285
0.00105443372101795
0.0010945033536667033
0.0011321771009052963
0.0011676162999268347
0.0012010667224054783
0.0012328564317585014
0.0012633935301365215
0.0012931641775003023
0.0013227313067549645
0.0013527344568918097
0.0013838910005548367
0.0014169988135610124
0.0014529401742947783
0.0014926859142730545
0.0015372914359311853
0.0015877748772681493
0.0016433480470940795
0.0016765394070748021
7.240335267800287e-05
8.143041799643592e-05
0.00010033046839710106
0.00012384727048120236
0.00015158903974761244
0.000183469539771627
0.00021937655317641512
0.0002591427353227851
0.0003025384109451969
0.0003492672026514741
0.0003989640841697167
0.00045119669437085954
0.0005054706115668106
0.0005612389812811237
0.0006179164508885687
0.0006748969215571967
0.0007315741213022271
0.000787363583875818
0.0008417243110579486
0.0008941783907776705
0.0009443270749285895
0.0009918624396667629
0.0010365744176560293
0.0010783537031047604
0.00111719141206118
0.0011531765235632818
0.0011864920470012906
0.0012174106279276987
0.0012462902298845716
0.001273570389115678
0.0012997695440758797
0.0013254839077592524
0.0013513882335266453
0.0013782386888445066
0.0014068778469400172
0.0014382415289053972
0.001473366531247575
0.0015133912223127461
0.001559444645782248
0.0016109693920966829
0.0016420540750797605
6.422133931026541e-05
7.335064045735861e-05
9.267019989055522e-05
0.0001169683684845528
0.00014582895804295324
0.0001791409409525787
0.00021676997372576057
0.00025852672176532017
0.0003041565245163432
0.00035333199111830025
0.00040564856553843085
0.0004606242758351954
0.0005177046655037966
0.0005762734160488323
0.0006356685582404057
0.00069520349169367
0.00075419141689306
0.0008119713025735417
0.0008679332670070288
0.0009215413258885914
0.0009723518217009874
0.0010200265393116089
0.0010643401785034934
0.001105182662393686
0.0011425571753397314
0.0011765751787491253
0.001207449675541332
0.0012354878574660213
0.001261084236530332
0.0012847150069779261
0.0013069344119816416
0.0013283735837548293
0.0013497422477727243
0.0013718334563720806
0.0013955313065604831
0.0014218213384769955
0.0014518026379924372
0.001486694003072702
0.0015277362247572402
0.0015746239952328142
0.001603270622527778
5.5553020196999816e-05
6.47662357812209e-05
8.449633495605353e-05
0.00010959976167877854
0.00013963508590908734
0.0001744675941202539
0.0002139443933369557
0.0002578587657849851
0.00030593508573920124
0.0003578168544689702
0.00041305849261196647
0.00047112265910512555
0.0005313845402555908
0.0005931437930798416
0.0006556439475866215
0.0007180981466736173
0.0007797192351836102
0.0008397516307710887
0.0008975021773832244
0.0009523673157616584
0.0010038545274525061
0.0010515967795735367
0.0010953597038295888
0.0011350420715036539
0.0011706708427368536
0.0012023924011190382
0.001230461759590712
0.0012552313781434839
0.0012771410204506762
0.0012967098207536305
0.0013145313820960359
0.0013312725309120954
0.0013476760591381895
0.0013645676127786598
0.0013828666478755205
0.0014036011354207146
0.001427924934725045
0.0014571307173626537
0.001492567711352721
0.0015342014176448363
0.0015600561838730199
4.658153243985956e-05
5.583587674689807e-05
7.592359158054125e-05
0.00010181096878393014
0.00013303286063804382
0.00016943433945810796
0.00021085069654952604
0.0002570659515604746
0.00030779080254498224
0.0003626439146627928
0.0004211380384026376
0.0004826736977429662
0.0005465424550564563
0.0006119407164569298
0.0006779937764087056
0.0007437884162030104
0.000808411265440868
0.0008709892566405674
0.000930728250878079
0.0009869462762245342
0.0010390986501833228
0.001086793484188011
0.0011297974207343348
0.0011680326031813396
0.001201566751002632
0.0012305987549204563
0.0012554421591776418
0.001276508886655034
0.001294294978075618
0.0013093698346755783
0.0013223698793541322
0.0013339972617839374
0.0013450238820562161
0.0013563008323603457
0.0013687731771172503
0.0013834997862971234
0.0014016772602230359
0.0014246608184285386
0.00145390031559607
0.0014896470474398261
0.0015123399363532616
3.7551098491998845e-05
4.676901011332316e-05
6.709860479487226e-05
9.36841254187187e-05
0.00012604144081411868
0.00016400196499204018
0.00020740001021068158
0.0002560233710449527
0.000309581192992233
0.00036767499424638614
0.0004297764718284636
0.0004952158802203901
0.0005631837827211419
0.0006327475546202499
0.0007028821701905995
0.0007725129047597765
0.000840565769244934
0.000906020372505821
0.000967959564885401
0.0010256108192681231
0.0010783757124814847
0.0011258457858308467
0.00116780497946369
0.0012042204890203587
0.0012352251041499393
0.0012610944337244489
0.0012822225505209244
0.0012990989921130962
0.0013122894344094606
0.001322421679649041
0.0013301778772570774
0.0013362934610378283
0.0013415629138034976
0.001346852278044275
0.0013531183288367984
0.0013614342957819342
0.0013730216132182647
0.0013892816897823953
0.0014117517344248759
0.0014409805531897277
0.0014601349691188358
2.8769462653006826e-05
3.782672265882895e-05
5.819812316746422e-05
8.530946265553462e-05
0.00011866675842405128
0.00015809681859549799
0.00020344937593515486
0.0002545369184725061
0.0003110860401219167
0.00037269361433096127
0.0004387927745980007
0.0005086336299420672
0.0005812827258768269
0.0006556433706303884
0.0007304962985640765
0.000804557208871722
0.0008765449842833068
0.0009452526103888849
0.001009612394041372
0.00106874823323067
0.0011220099860395712
0.0011689881048657347
0.0012095096065111496
0.0012436188277912946
0.0012715478462857928
0.0012936817539852127
0.0013105235964642413
0.0013226628844494298
0.0013307502822944893
0.001335480223176422
0.0013375820632595882
0.0013378199463446212
0.0013370010966327892
0.0013359921866614118
0.0013357434831683644
0.0013373207255704793
0.0013419452443412853
0.0013510387834112189
0.001366211187177165
0.0013883143858217043
0.0014035590152728194
2.060400569123928e-05
2.9316211311711193e-05
4.9422138114718944e-05
7.678093115992948e-05
0.00011089522643686194
0.00015159892464135878
0.0001987858470427111
0.0002523247980491353
0.0003119877856920873
0.00037738622200761304
0.00044792016563460757
0.0005227477909786604
0.0006007810902185175
0.0006807113782637914
0.0007610643215894477
0.0008402794545191609
0.0009168048363187611
0.0009891944998642681
0.0010561959159463507
0.0011168166713063307
0.0011703637422648798
0.0012164536963174051
0.0012549968205738137
0.0012861614915571462
0.0013103266466479395
0.0013280301829387887
0.001339919842703718
0.0013467113634695927
0.001349156757523048
0.0013480239898131616
0.001344088160474009
0.001338133615382005
0.001330966107943634
0.001323434177829729
0.0013164591225429839
0.0013110733793927644
0.0013084673526913176
0.001310045992304313
0.0013174519294710174
0.0013318730485702632
0.0013428623383520692
1.345813002380657e-05
2.1573515529109648e-05
4.099231382450709e-05
6.819551107448665e-05
0.00010268239667433996
0.00014432782957779294
0.00019311149117376305
0.00024900125969221743
0.00031185432213249253
0.0003813255560324451
0.0004567928777487984
0.0005373094422802116
0.0006215925823210527
0.0007080558672084171
0.0007948848873151337
0.0008801496266149429
0.0009619389561388295
0.0010384976889864085
0.0011083461180234702
0.0011703656190247644
0.0012238414905593334
0.0012684625029438829
0.0013042840617935754
0.0013316663392847186
0.001351200158033041
0.0013636321266789484
0.0013697977311738282
0.0013705678219773844
0.0013668109352861747
0.0013593717155777575
0.001349064255237739
0.001336678620526886
0.0013229989305287362
0.0013088313483840056
0.001295041268822661
0.001282599046587722
0.0012726346408247274
0.001266496407866858
0.001265801834134422
0.0012719988951968388
0.0012784046200161085
7.800081547155513e-06
1.497050077902647e-05
3.3148416240197964e-05
5.963273379637088e-05
9.39468165429748e-05
0.00013605101631328714
0.00018605760321595974
0.00024409176159731624
0.0003101523302168562
0.0003839823756893421
0.0004649589640598766
0.000552018216825679
0.0006436314024358913
0.0007378443105226311
0.0008323827299106947
0.0009248145038900301
0.0010127450625241668
0.0010940148787478106
0.001166865821486039
0.0012300512623570096
0.0012828781206707482
0.0013251839352630143
0.0013572635023121253
0.0013797655600506242
0.001393579855141496
0.001399731315528252
0.0013992919949337543
0.0013933160623710351
0.001382798627348352
0.0013686564224747605
0.0013517270240405894
0.0013327831754241844
0.0013125592505788385
0.0012917878769540168
0.001271245676176566
0.0012518080714447614
0.001234513155033463
0.0012206365962564478
0.0012117299132493402
0.0012094592460580162
0.001210967713469916
8.681454823253723e-05
0.00012919605772599942
0.0002405856205200472
0.0004759968584843236
0.0005704842515237971
0.0007733015892765056
0.0008763164646741104
0.0010705198049901906
0.0011561270389208725
0.0012943877021741258
0.001345180029517349
0.0013836762587624417
0.0014105367037201759
0.0014268054840261757
0.0014337498653994862
0.001432720878369675
0.0012992722827721288
0.001272526962141108
0.0011753117221913563
0.0011588871146280108
0.0011455797122267304
4.183810274009338e-06
1.0513957589205026e-05
2.734776041026059e-05
5.289051374698433e-05
0.00018034032968095842
0.00031011969267281844
0.00038879988581277345
0.0006704002383013342
0.0009763806129343001
0.001231183544243998
0.0014250466857078645
0.0014119615758806038
0.0013945678462713338
0.0013738249422457116
0.001350559705871635
0.001325492079337982
0.0012459136193142158
0.0012201839352084603
0.0011962583852304666
0.001148752897800389
2.5817608959752506e-06
7.879816977605604e-06
2.3100874961014515e-05
4.730633649647686e-05
8.01669152055688e-05
0.00012185722345698617
0.00017282560110092109
0.0002335900277089229
0.00030451647686908205
0.00038560331735722176
0.0004762850917421806
0.0005752862200253095
0.0006805591489299042
0.0007893376578430997
0.0008983179037360477
0.0010039505944255673
0.0011027961368010226
0.0011918734257897112
0.0012689330158933876
0.0013326067967163607
0.001382421386548418
0.0014186950648621484
0.001442359328193623
0.0014547508997788665
0.0014574129612917566
0.0014519304557769083
0.0014398107605349954
0.001422410038194044
0.0014008991929298162
0.0013762607529108938
0.0013493078835861067
0.0013207186753114782
0.0012910805868050278
0.0012609425997285482
0.0012308743432523609
0.0012015331317500933
0.001173742006642334
0.0011485791276589032
0.001127489040205125
0.0011122939223433103
0.0011062138681526689
1.8048816354337146e-06
6.11643449066133e-06
1.9784676374594915e-05