# vtk DataFile Version 2.0
time_10.vtk
ASCII
DATASET UNSTRUCTURED_GRID
POINTS   4141  float 
9.122105882634677e-05         -5.986687796611384e-18        0.0                           
0.24999999999999895           8.673684637208116e-05         0.0                           
0.5000841814304517            2.3056490767707753e-16        0.0                           
0.75                          7.835472154457297e-05         0.0                           
1.000075053827716             2.679602692032538e-17         0.0                           
1.2499999999999998            6.762092558621574e-05         0.0                           
1.5000634742252257            2.89550979154048e-17          0.0                           
1.75                          5.430347225394823e-05         0.0                           
2.0000492805787347            1.0530264449544808e-17        0.0                           
2.25                          3.8381987366367754e-05        0.0                           
2.500032523002875             -1.3121220491149436e-16       0.0                           
2.75                          2.0051943983717507e-05        0.0                           
3.0000134855741383            3.11294533898474e-17          0.0                           
3.25                          -2.356158137769098e-17        0.0                           
3.4999922975601248            5.595024242322406e-17         0.0                           
3.75                          -2.3250368590294933e-05       0.0                           
3.999968792503395             -1.226391443836164e-16        0.0                           
4.25                          -4.753302556179782e-05        0.0                           
4.499944106204229             -2.5278805455178672e-17       0.0                           
4.75                          -7.298975272203252e-05        0.0                           
4.999918279900359             4.014548793436663e-18         0.0                           
5.25                          -9.954816684732185e-05        0.0                           
5.49989134631946              -3.502271074241887e-16        0.0                           
5.75                          -0.00012728498606709058       0.0                           
5.99986316720231              -2.097070985423377e-17        0.0                           
6.25                          -0.00015646440475353533       0.0                           
6.49983341716114              -1.0611334925354553e-15       0.0                           
6.75                          9.092683023548788e-05         0.0                           
7.000088786101246             6.247772180061422e-06         0.0                           
7.250006786820114             8.38963949580367e-05          0.0                           
7.5000811096088835            7.951600001449467e-06         0.0                           
7.750008571456881             7.477221121680774e-05         0.0                           
8.000071196531941             9.868954011341933e-06         0.0                           
8.250010539166093             6.318768543526848e-05         0.0                           
8.500058745039878             1.190354292111509e-05         0.0                           
8.750012590251233             4.897937371716527e-05         0.0                           
9.000043662436033             1.395505161781449e-05         0.0                           
9.250014626612115             3.219356601919259e-05         0.0                           
9.500026061562979             1.5932955155754995e-05        0.0                           
9.75001656181968              1.3061723963811715e-05        0.0                           
10.000006198713807            1.7758916735364556e-05        0.0                           
1.8434421958178193e-05        0.2999917116970684            0.0                           
0.2499841145051048            0.30001963132258974           0.0                           
0.5000201582671209            0.2999683793724427            0.0                           
0.7499602851613888            0.3000211820700081            0.0                           
1.0000216805393551            0.2999436881408389            0.0                           
1.2499351976744124            0.30002265906634007           0.0                           
1.500023144184521             0.2999178514190889            0.0                           
1.7499089971355086            0.3000241213147702            0.0                           
2.0000246200264793            0.29989091305018795           0.0                           
2.2498816707845126            0.3000256551501525            0.0                           
2.500026198490165             0.29986273654289664           0.0                           
2.7498530178995666            0.30002735311787165           0.0                           
3.0000279703127446            0.29983299524732315           0.0                           
3.249822653025156             0.3000292974085066            0.0                           
3.500011461465072             0.30008791345653485           0.0                           
3.750085585980509             0.300013556434333             0.0                           
4.000014696344904             0.3000802601522002            0.0                           
4.250077226908501             0.3000171334450028            0.0                           
4.500018417271257             0.3000703497625146            0.0                           
4.750066485483127             0.3000210787456708            0.0                           
5.000022441127921             0.30005787457294075           0.0                           
5.250053123548641             0.3000251914235233            0.0                           
5.500026564941602             0.3000427383312629            0.0                           
5.7500371141689               0.3000292758496849            0.0                           
6.000030601827882             0.300025040651994             0.0                           
6.250018608110227             0.3000331739013597            0.0                           
6.500034419296493             0.30000497505164375           0.0                           
6.749997813911458             0.30003689330879024           0.0                           
7.000038092147515             0.2999828676420006            0.0                           
7.249975099377236             0.30004031041332613           0.0                           
7.500041355285857             0.2999590555095942            0.0                           
7.74995081231569              0.30004337242125384           0.0                           
8.000044355132397             0.2999339332368802            0.0                           
8.249925309288457             0.30004629580247844           0.0                           
8.50004726596414              0.29990770489603735           0.0                           
8.74989872218735              0.30004923935191763           0.0                           
9.000050256628308             0.29988037136363205           0.0                           
9.249870985929329             0.30005238765083475           0.0                           
9.50005351502436              0.2998517333375652            0.0                           
9.749841834634566             0.30005592470547665           0.0                           
10.000057217848257            0.29982139855571227           0.0                           
8.857043849946134e-05         0.6000171415684799            0.0                           
0.25001866705837483           0.6000841462310075            0.0                           
0.5000816146054727            0.6000220063435925            0.0                           
0.7500238045138142            0.600075816560431             0.0                           
1.000072518721083             0.6000276092205651            0.0                           
1.2500295938314698            0.6000650663511988            0.0                           
1.50006089637131              0.6000336700411134            0.0                           
1.7500357385734693            0.6000516506454615            0.0                           
2.0000465754527226            0.6000398812772862            0.0                           
2.2500419351835               0.6000355391643266            0.0                           
2.5000295912031145            0.6000459646848462            0.0                           
2.7500479273248217            0.6000168768171884            0.0                           
3.0000101289864123            0.6000517371211256            0.0                           
3.250053587388649             0.5999959290472403            0.0                           
3.4999885139504685            0.6000571558036222            0.0                           
3.7500588504188412            0.5999731105342706            0.0                           
3.9999651447227733            0.6000620577735398            0.0                           
4.250063589794737             0.5999487540897258            0.0                           
4.499940353934046             0.6000665585840502            0.0                           
4.750068012873043             0.5999231857107201            0.0                           
4.999914426588387             0.600070907982738             0.0                           
5.250072369027944             0.5998965613163392            0.0                           
5.499887448460858             0.600075371341976             0.0                           
5.750076934305578             0.599868825552955             0.0                           
5.999859292914838             0.6000802368262806            0.0                           
6.250081996230251             0.5998397102010552            0.0                           
[...]
POINT_DATA  4141
SCALARS Con float 1
LOOKUP_TABLE default
0.0010565988017762467
0.0011599438449705964
0.001365194868008337
0.001606360066426328
0.001880273131637839
0.0021879469216943056
0.002530187041463378
0.0029072374655281716
0.003318726936001466
0.0037636593121483934
0.004240428408008825
0.004746854002711457
0.005280234675563362
0.005837410065320628
0.006414820867743396
0.007008545379038503
0.007614312356075192
0.008227442145687543
0.008844389983430416
0.00947201835922558
0.010187004164008988
0.010910498351376214
0.011562809647108381
0.012183419078460772
0.012808811797226722
0.013436936046240263
0.014068522738386343
0.01470489110463489
0.01534843206110356
0.01600239126476022
0.016670755765641546
0.017358152936689516
0.01806976369424669
0.018811240354701355
0.019588624781827407
0.020408263448742883
0.02127671080364483
0.02220051105242368
0.02318426737137658
0.02420253630855111
0.02478758070149354
0.0010777940730985719
0.0011837481426852053
0.0013933366929625333
0.0016392047350854994
0.0019181968951486935
0.0022312418578991104
0.002579059440946859
0.002961802220920335
0.003379006540238026
0.003829587184914776
0.004311857574789611
0.004823573079290916
0.005361995488192993
0.00592397699597587
0.006506065023037516
0.007104649474011377
0.007716200863783988
0.00833812274242219
0.008969974517807327
0.009630697657367479
0.010304604670014013
0.010969717548160505
0.011618809552373087
0.012262622355179949
0.012896876919943479
0.013529576186038133
0.0141633048746428
0.014800767982168329
0.015445004997366023
0.016099652577826713
0.016768958120854098
0.017457746796816644
0.018171364161753637
0.018915608187087058
0.019696654180798776
0.020520972919075047
0.021395234579797574
0.02232609189444846
0.023318202197404148
0.024346474114964687
0.024937942574912515
0.0010675465667048143
0.0011733444515315845
0.0013831944727927116
0.0016299147922994538
0.0019102889724611541
0.0022252274513043144
0.002575418623618685
0.002960979556064289
0.0033814098495987214
0.003835590883697544
0.00432181291868698
0.004837830256554735
0.005380947253011513
0.005948142735906169
0.006536254158507066
0.007142264849545802
0.007763858134839339
0.008400030136874416
0.009054167454537918
0.009706831634416407
0.01033299575709824
0.010963227793792897
0.011618986902527054
0.012270749094364748
0.012914605596967901
0.013552064115058687
0.014187274831721754
0.014823785083953751
0.015465297109063608
0.016115866128947845
0.016780029255640882
0.017462833469941028
0.01816981729355922
0.018906965644415616
0.019680648646450513
0.02049754829858173
0.02136456699562132
0.02228860606933712
0.023274588254833264
0.02429737098032306
0.02488569590180882
0.0010496453924542862
0.0011554352491335038
0.0013657901586658556
0.0016138971567107119
0.0018965433723914396
0.002214596713998421
0.002568691931564902
0.0029588832880079806
0.0033846029544682206
0.003844664828488262
0.0043372975566334905
0.004860207726346303
0.005410676306295469
0.005985693457488251
0.006582135809795763
0.0071969880518454495
0.007827451388355982
0.008470910029541662
0.00911926990141559
0.009762314471427008
0.010399394117136255
0.011034748551657547
0.01167412724710325
0.012319194934556387
0.012960987659591137
0.0135976583331895
0.014230662921396822
0.01486307754829939
0.01549859553133867
0.016141447054611357
0.016796385494645676
0.01746868878258108
0.018164139961741092
0.01888898899835743
0.019649898904148456
0.0204538778641726
0.02130818962114706
0.02222012844398335
0.023195025307102646
0.02420834549378392
0.02479206704485398
0.0010243581865052266
0.0011301344190830904
0.0013412461296792035
0.0015913486943691369
0.001877224532971737
0.0021996826242673957
0.0025592778904252613
0.0029559707305070733
0.003389088740663867
0.0038573331446841042
0.004358813283851463
0.004891108851535965
0.005451359005825378
0.006036372596898461
0.006642741720065793
0.00726689037842566
0.007904964453371875
0.008551810341988706
0.009201426159874446
0.009848773256923495
0.010491313781279904
0.011130716913680559
0.011769329834526566
0.01240674665626604
0.013041719169679252
0.013672192216939036
0.014298517308706455
0.014922809981866894
0.015548390721502962
0.016179413613622563
0.016820727398452494
0.017477803596060215
0.018156687308687695
0.018863948239275785
0.019606624679075264
0.020392156206706695
0.021228294217069853
0.0221228770739267
0.02308185457159544
0.02408168698044526
0.02465893055823985
0.0009914807958932988
0.0010972756332909867
0.0013094254453839224
0.0015621664226962901
0.0018522668041514696
0.0021804540269525162
0.0025471756791814286
0.0029522651034029766
0.003394905224254437
0.0038736348515258454
0.004386380286180575
0.004930510199265407
0.005502909281286068
0.006100059448011486
0.00671810261344595
0.00735284903706419
0.00799963355536217
0.008653401486959223
0.009309100987594554
0.009962541007163402
0.010611409936186166
0.011255036224401195
0.011893561027954719
0.012527022513312372
0.01315474993981376
0.01377642116056976
0.014392486643367883
0.015004759842908227
0.015616274254238999
0.016231080466092947
0.016854081316723637
0.01749092791607345
0.018147945427111983
0.018832071052183427
0.019550792874175174
0.02031208205968629
0.02112430592355757
0.021996010191470662
0.022933985195189893
0.023915957382813758
0.024484496433565345
0.0009508279184393408
0.0010566873290482244
0.001270192916734862
0.001526255119706383
0.001821615596743293
0.0021568963786221464
0.002532409640529055
0.0029478291053312653
0.0034021542690593387
0.003893714287567811
0.004420194313202958
0.004978681797552668
0.005565728082867871
0.006177415793946623
0.006809419748493132
0.007457047822327071
0.00811532835591408
0.008779194787513312
0.009443871252310115
0.010105377482920947
0.010760855509871818
0.011408611048398347
0.012047758284476436
0.01267778352087994
0.013298458616216492
0.013909923364996236
0.014513098717200386
0.015109895325301891
0.015703328058778315
0.016297456537701652
0.016897288598614838
0.017508688210300834
0.018138299513093502
0.018793481434351254
0.019482246023530186
0.020213193526360897
0.02099543155617728
0.021838368835065937
0.02274981234770041
0.023709026259054515
0.02426637825218497
0.0009022646942990921
0.001008246489939628
0.0012234531426444854
0.0014835541748973746
0.0017852475304091027
0.0021290249119646216
0.0025150365064252984
0.002942767288330652
0.003410999737123431
0.003917813416304596
0.004460605141399254
0.00503612849642101
0.005640550454445276
0.006269521612603011
0.006918257789191396
0.0075816462897160975
0.008254396770344691
0.008931272031058535
0.009607388991231093
0.01027852601310424
0.01094134596340824
0.011593439375215564
0.01223322259871581
0.01285979717907308
0.013472863535228438
0.014072794864957884
0.01466076250032744
0.015238893327071982
0.01581034511708189
0.016379318719092237
0.01695101562679759
0.01753157771763469
0.0181280259055372
0.01874820303202477
0.01940071946234058
0.020094896757358604
0.020840697426874624
0.021648531295520697
0.022527391960271086
0.023458401788923746
0.024001767412218968
0.0008457657526378759
0.0009519282632416126
0.0011691909397441003
0.0014340658635607596
0.0017431863487699232
0.002096888714641183
0.002495138053112265
0.0029372075960283277
0.003421637260736147
0.003946226583751101
0.004508047726397872
0.005103479643294908
0.005728264566917082
0.006377587800634617
0.007046184590147685
0.007728480712072379
0.008418777077775287
0.009111478327942584
0.009801348184685007
0.010483751408023316
0.011154831884921819
0.011811600919278893
0.012451943570072427
0.013074586235287079
0.013679083890120595
0.014265844344721727
0.014836197697151794
0.015392467336119021
0.015938023973963975
0.01647730076188027
0.01701577783531649
0.017559947137177657
0.018117270635315114
0.01869613866101607
0.01930582978549807
0.019956469536505452
0.020658976393890895
0.021424887310152286
0.022264550134908113
0.023161285881232247
0.023687494864480532
0.0007814834610717585
0.0008878666005608491
0.001107516625078868
0.0013778846055029562
0.0016955155774204327
0.002060566868313998
0.0024728012700539455
0.0029312662477648786
0.003434244076218365
0.003979234303388244
0.004562956993382368
0.005181380722329387
0.005829779531056242
0.0065028225476394756
0.007194699581890718
0.007899285460415899
0.00861034196825882
0.009321749083665166
0.01002774606913544
0.01072315482744861
0.011403558877323439
0.012065422718701382
0.012706155651626218
0.013324140451354612
0.013918749903503029
0.01449037069420204
0.015040435067967857
0.01557145517613592
0.01608704653583031
0.016591935271789284
0.01709194820141654
0.01759399224436455
0.018106029678176407
0.018637054677664452
0.019197072699877683
0.019797080619763208
0.0204490365243756
0.02116571385540815
0.021958969758362052
0.02281467945401172
0.023320144805404057
0.0007098278542635235
0.0008164235359597295
0.00103871567215444
0.0013152255286999037
0.0016423856115296504
0.0020201543809300225
0.002448084316591654
0.002924995574730621
0.003448911049208695
0.004017022072435615
0.004625676734550562
0.005270398064968542
0.005945939041448113
0.00664637951727194
0.00736526753428213
0.008095803775464677
0.00883106274721149
0.00956423771579293
0.010288890427656568
0.010999183635357634
0.011690077075240708
0.012357475701049005
0.012998329903229756
0.013610696425402961
0.014193773450400404
0.014747920935373667
0.015274673588172792
0.01577674736252316
0.01625803927035229
0.016723619614324645
0.017179718862200065
0.01763371306067839
0.018094112550616652
0.0185705573206089
0.019073819978677752
0.019615813947705348
0.02020959570933376
0.020869259017883827
0.02160830301503822
0.022415519285252726
0.0228962051610667
0.0006315567086314247
0.0007382657614146392
0.0009633003653815327
0.001246449686941511
0.001584012249010826
0.001975734920779054
0.0024209655494562164
0.0029183127218837548
0.0034655556935715482
0.004059583664279679
0.0046963608399977885
0.005370928362065806
0.006077453081186705
0.006809329688440558
0.007559337921617355
0.008319850837891073
0.009083083789120963
0.009841367841374963
0.010587427181743976
0.011314639204757252
0.012017259059074949
0.01269059702311313
0.01333114511610725
0.013936656829833242
0.014506188266590864
0.015040110845324776
0.015540104596505828
0.01600913938809524
0.01645144984866332
0.016872509022192787
0.017279005733633758
0.017678830759658842
0.018081076007254143
0.018496049379613858
0.01893530549983016
0.019411689175183124
0.019939380039957343
0.02053384001361453
0.021210308895759734
0.02196085307192848
0.022412262349164616
0.0005478717749173146
0.0006544445499156764
0.0008820595166513285
0.0011720819654903371
0.0015206628488942959
0.0019273366472686406
0.002391272110339049
0.002910905849462437
0.003483812715373796
0.004106604674836834
0.0047748603162040704
0.0054831010704926375
0.006224828086357613
0.006992628342637301
0.0077783514890382615
0.008573350862343008
0.009368774340910449
0.010155884293778752
0.010926382170906515
0.011672713279584504
0.01238833083754357
0.013067905157541837
0.013707471680066207
0.014304519355253119
0.014858026740474992
0.015368456840197718
0.01583772318858725
0.016269139363184554
0.016667363334793472
0.017038346465349245
0.017389295818558866
0.01772865664453558
0.018066120236968256
0.01841265979160113
0.018780594014642375
0.01918367448527156
0.019637184421876935
0.020157954300502542
0.02076301644246033
0.021448052989989738
0.021865241778992187
0.0004605137809965583
0.0005664718836574631
0.0007961000463737328
0.0010928164746348808
0.0014526258172800292
0.0018748676762366072
0.0023585849466416756
0.0029021145332544687
0.0035028982425681183
0.004157321549943302
0.004860589979620366
0.0056066662109867296
0.006388287718581877
0.007197076675665954
0.008023743761365503
0.008858376446413328
0.00969079203052031
0.010510927762165877
0.011309236235230013
0.01207705461579657
0.012806921132945735
0.013492820354646481
0.014130348633269566
0.014716800730883172
0.015251186725618598
0.015734193830814543
0.016168110731626537
0.016556732625757666
0.016905264051319424
0.017220234470517907
0.017509438753358437
0.017781911993732566
0.018047944902526293
0.01831914310465538
0.018608530193824666
0.018930690016299767
0.019301933773073276
0.019740401953068257
0.02026491118182596
0.020875066482699437
0.021252694419582975
0.00037184256613023297
0.00047638103540083553
0.0007068713812299768
0.0010095032091055503
0.0013801601570080167
0.001818029709683432
0.0023221194381485245
0.002890783240459072
0.0035214458587853243
0.004210353654705835
0.004952372308247048
0.005740866045806765
0.0065676862643082754
0.0074232859766224435
0.008296962256500574
0.009177213452877463
0.010052183580929514
0.010910155361207251
0.011740047933473531
0.012531876299749197
0.013277136515461708
0.013969092192498247
0.014602951576549951
0.015175937902557899
0.01568726687396119
0.01613805294930014
0.016531169913522017
0.01687109197492506
0.017163739292969236
0.017416348432832
0.017637383479018706
0.017836499429738514
0.01802456497676679
0.018213748595194448
0.01841766848398869
0.018651602815837148
0.01893274595706505
0.019280417231985987
0.019715140901482922
0.020240699675241208
0.020573124521418434
0.0002848818865300432
0.0003867538323044869
0.0006161605301092206
0.0009231111497856689
0.0013034254927454215
0.0017562135999949695
0.002280585720663038
0.002875090638409697
0.0035373164536887775
0.004263510163538884
0.005048260839360217
0.005884295068970832
0.006762422990446913
0.007671658572426942
0.00859951782973222
0.009532476778092654
0.010456549574421714
0.011357931521401828
0.012223643625217152
0.013042117395467588
0.013803669693168624
0.014500835035380683
0.015128543401044258
0.015684151108645107
0.01616734819347974
0.01657997578715573
0.016925791380878245
0.01721021903380059
0.017440117174697664
0.017623590212107847
0.01776986301549823
0.017889230760326107
0.01799309114803012
0.01809406213134739
0.018206185897221935
0.018345218960857522
0.018529000087714114
0.01877781421561636
0.01911373318763244
0.01954492278240734
0.01982635309485369
0.00020329509134172898
0.0003006887979041894
0.0005260460967735892
0.0008346663721080403
0.0012224036256363413
0.00168838945522513
0.0022320371310440698
0.0028523632731615725
0.00354739106976976
0.004313580993275523
0.00514535253740214
0.006034759302962649
0.006971372136625907
0.007942405697867175
0.008933096623703347
0.00992730850842369
0.010908306678558117
0.01185962066309369
0.012765900351505058
0.01361367555154577
0.014391947163929445
0.015092566714742689
0.015710393282666296
0.016243246336089225
0.016691695223751944
0.01705873855487232
0.017349429922314762
0.017570502179946528
0.017730033169274937
0.017837184896978758
0.01790203674408699
0.01793552415912109
0.01794948701637703
0.01795682760508211
0.01797177692112307
0.018010269221070137
0.018090432288987986
0.018233147058648994
0.01846183753398875
0.018789178661043106
0.01901387154984685
0.00013126423197338887
0.00022168079641953569
0.0004387935666021711
0.0007451948737272649
0.0011368389763759615
0.0016129966721019412
0.002173719260611842
0.0028188939351405998
0.0035473692294685673
0.004356133086508788
0.005239608262039
0.0061891534802706255
0.007192849736294186
0.008235629451728343
0.009299767136659483
0.010365699429374896
0.01141309111317009
0.012422022390632444
0.013374153270650993
0.014253728499405127
0.015048317955049816
0.0157492362651575
0.016351636984734862
0.016854322391663387
0.017259340329270838
0.017571453705751416
0.01779756662116958
0.017946179342501773
0.018026926449704373
0.0180502337468479
0.01802711280448179
0.017969099222301065
0.01788833231580501
0.017797769755584725
0.017711529831575142
0.017645357952692793
0.01761721624070971
0.017648020455313957
0.017761951014271055
0.017976699179015093
0.018139285426593123
7.607455880465923e-05
0.0001533710177819911
0.0003568002303560469
0.0006557163275174485
0.00104614277804262
0.0015278321325545192
0.0021019573804122137
0.0027698148085390463
0.003531622997703762
0.004385355055470445
0.005325716555053027
0.006343386669915638
0.007424648639505785
0.008551506353260041
0.009702329488060376
0.010852989264488555
0.011978361239115151
0.013054000670581885
0.014057763107222477
0.014971156441449255
0.01578026913290633
0.016476202592928882
0.017055023418753302
0.017517320160022522
0.01786749121323412
0.01811290052065674
0.01826302559557193
0.018328694248718858
0.01832147416581447
0.01825324892079401
0.01813599018080591
0.017981720017218237
0.01780264929539089
0.017611475602188315
0.017421826812970803
0.017248838312521345
0.01710986240446821
0.01702524161042683
0.017019003233325225
0.01711271211376596
0.017208095165455486
3.686590817362218e-05
9.947159092333432e-05
0.000282518933881849
0.0005670423543061282
0.0009493914483136473
0.0014302519064982033
0.002012461062326914
0.0026994449170043176
0.003493548487282499
0.004394407567516592
0.0053974664801760865
0.006492824325024456
0.007664603895679924
0.008891015811198904
0.010145209690280974
0.011396877324983453
0.01261442204302394
0.013767383653902458
0.014828745880522819
0.015776783587861255
0.016596214125284208
0.017278570653722104
0.017821861725652203
0.01822968997131248
0.01851005070417165
0.0186740297705584
0.018734578229638397
0.018705486284194075
0.018600621001689473
0.018433446812862162
0.01821681587168424
0.01796299928965332
0.017683925679911266
0.01739159790989253
0.01709866775881205
0.01681915932715556
0.016569330398915522
0.016368693021814686
0.01624050640800672
0.016209441078078392
0.01623276184262845
0.0008705358273126695
0.0013485737620950566
0.0026443510171848587
0.005501115528167059
0.0066851416126476
0.009299405309898824
0.010669032338190715
0.01334527237882902
0.014574802162169389
0.016658038926509116
0.017471621477503113
0.018121441226290176
0.01860911721179691
0.01894286991049857
0.019135649100424736
0.019203267130229042
0.0175237934829207
0.01713887046357418
0.01571915868268243
0.015479322324875274
0.015286951004863464
1.6491382911236788e-05
6.825716070999216e-05
0.00023025487923961514
0.0004984257964947115
0.0019377556860952615
0.003473499182897273
0.00442697544064497
0.007960201195735879
0.012030852037954816
0.0156872357263474
0.019162768671607225
0.019031167602667078
0.018824595395531607
0.018557843335393717
0.01824424721396037
0.017895851206915028
0.01675225620677894
0.016376373597564962
0.01602593865874044
0.015332486163868416
1.2462885130603844e-05
5.125645388215735e-05
0.00019111522240398718
0.000440278398167058
0.0007962588601879259
0.0012620184253177534
0.001844440418241761
0.002552054320243131
0.003392433629144499
0.004369554070990198
0.00548123313631883
0.006716973857764059
0.0080566128219891
0.009470179934346346
0.010919238403863147
0.012359695403584288
0.013745721693767393
0.015034109896512977
0.016188265890250398
0.017181125883470375
0.017996588354386465
0.018629420924800348
0.019083920296230156
0.019371782835918533
0.019509674988500782
0.0195169112220981
0.019413512473249604
0.01921877708583004
0.018950383827179347
0.018623973582243207
0.018253122153218997
0.017849612658312104
0.017423930004954263
0.016985923798523404
0.016545613305395484
0.01611413029824349
0.015704830005601737
0.015334560940120057
0.01502520578251564
0.014803662269097365
0.014715385016862703
1.659157676918258e-05
4.256663087199986e-05
0.00016172520462383091
0.0003926173860083879
0.0007329641761740107
0.0011865943111673228
0.001762275015079123
0.0024709962850461955
0.0033230279018705193
0.004324807811215075
0.005475848676348799
0.006766016156877565
0.00817370222652935
0.009665453102735538
0.011197460526529876
0.012718964372235308
0.014177125447276322
0.015522482375843449
0.01671390286452725
0.017722081007006542
0.018531060882692803
0.019137793955055077
0.019550165681053146
0.019784141215375813
0.01986068045489753
0.019802927168605863
0.019633975106265415
0.019375324064267254
0.01904600002865068
0.01866223490103285
0.018237574028055138
0.01778328808307593
0.01730899340686181
0.016823419248580766
0.016335292827783236
0.015854348481165043
0.015392456582256046
0.014965018612000511
0.014592006139847786
0.014303948508210115
0.014179387835960514
2.650163776783381e-05
3.954570332148543e-05
0.00013712218889462503
0.00034823645262364357
0.0006710758772265142
0.0011104308180271132
0.001677161538707805
0.0023850889812403325