# vtk DataFile Version 2.0
time_10.vtk
ASCII
DATASET UNSTRUCTURED_GRID
POINTS   4141  float 
3.182558568362765e-05         1.0234331504811546e-17        0.0                           
0.249999999999999             3.010965112264449e-05         0.0                           
0.5000291552676303            1.991477694615457e-15         0.0                           
0.75                          2.702267007200507e-05         0.0                           
1.0000258341543349            5.355880732432191e-17         0.0                           
1.25                          2.3193140114569744e-05        0.0                           
1.5000217354960732            -2.0479172848887978e-17       0.0                           
1.7499999999999984            1.8539958955666814e-05        0.0                           
2.00001680240811              -2.915750854872524e-17        0.0                           
2.25                          1.305522188756921e-05         0.0                           
2.500011051202785             5.239566860369805e-18         0.0                           
2.75                          6.8041115155868525e-06        0.0                           
3.0000045754270777            1.0145692157545575e-17        0.0                           
3.25                          -3.835644545405156e-17        0.0                           
3.4999974334497694            -5.000233687274805e-16        0.0                           
3.75                          -7.749361319035362e-06        0.0                           
3.999989603975589             -9.476274393811153e-18        0.0                           
4.25                          -1.5808563204576246e-05       0.0                           
4.499981429140503             2.1097410187757682e-17        0.0                           
4.75                          -2.4198622920725758e-05       0.0                           
4.999972938031495             -4.1408150640860484e-18       0.0                           
5.25                          -3.2887475501367934e-05       0.0                           
5.499964148050078             -2.4396152772972586e-17       0.0                           
5.75                          -4.18963984783685e-05         0.0                           
5.999955016279644             -1.561181758979249e-16        0.0                           
6.25                          -5.1312956085784123e-05       0.0                           
6.499945433176206             4.730085787519562e-16         0.0                           
6.75                          3.1737250385441186e-05        0.0                           
7.000030910353618             2.3918926266292265e-06        0.0                           
7.250002555994244             2.9070115127407134e-05        0.0                           
7.500028043651636             2.91431319499912e-06          0.0                           
7.750003106514069             2.5750236810046333e-05        0.0                           
8.00002447455178              3.5110782568195756e-06        0.0                           
8.250003720864548             2.1650020467512377e-05        0.0                           
8.500020097843707             4.148835258627296e-06         0.0                           
8.750004364413943             1.6712197959488373e-05        0.0                           
9.000014880788346             4.792581761598113e-06         0.0                           
9.2500050028925               1.0952119423854255e-05        0.0                           
9.500008861644515             5.410767458061849e-06         0.0                           
9.75000560634876              4.4488477676009985e-06        0.0                           
10.00000212961161             5.976530217874831e-06         0.0                           
6.181257253117802e-06         0.2999972603411171            0.0                           
0.24999471981549584           0.3000065429971354            0.0                           
0.500006702003911             0.299989478381409             0.0                           
0.7499867914688374            0.3000070079345302            0.0                           
1.0000071554619498            0.2999813015031421            0.0                           
1.2499785031445325            0.3000074427077762            0.0                           
1.5000075842037042            0.2999728071102161            0.0                           
1.7499699103430937            0.3000078682573776            0.0                           
2.0000080131739173            0.2999640156818702            0.0                           
2.249961013828316             0.30000831498599123           0.0                           
2.5000084743874775            0.29995488478010823           0.0                           
2.7499517485721534            0.3000088162271054            0.0                           
3.000009000889363             0.2999453045235445            0.0                           
3.249941983384253             0.30000940246357044           0.0                           
3.5000044708494733            0.3000306488151673            0.0                           
3.750029765316888             0.30000510598203195           0.0                           
4.000005455621992             0.3000277901846252            0.0                           
4.250026686437375             0.30000620960392965           0.0                           
4.5000066093410025            0.3000242222366526            0.0                           
4.750022854685154             0.30000744158164966           0.0                           
5.000007868771133             0.3000198378877511            0.0                           
5.250018187105289             0.3000087320931367            0.0                           
5.500009163179422             0.3000146035468894            0.0                           
5.750012674280096             0.3000100126524834            0.0                           
6.000010427012464             0.30000855418905276           0.0                           
6.250006369546719             0.30001122734917934           0.0                           
6.5000116125138145            0.3000017619142892            0.0                           
6.749999352010481             0.3000123699515497            0.0                           
7.000012733699782             0.2999943426736384            0.0                           
7.249991750054815             0.3000134030167754            0.0                           
7.50001371586023              0.2999864166687988            0.0                           
7.749983686589137             0.30001431434344866           0.0                           
8.000014603394767             0.2999781169457126            0.0                           
8.249975281735672             0.30001517032156083           0.0                           
8.500015452419973             0.2999695155416689            0.0                           
8.749966584104369             0.3000160255588911            0.0                           
9.00001632156317              0.29996061695773685           0.0                           
9.249957575575415             0.3000169450977692            0.0                           
9.50001727760146              0.2999513565187149            0.0                           
9.749948168115019             0.30001799570578636           0.0                           
10.000018385410627            0.2999416013035994            0.0                           
3.1029707353781835e-05        0.6000066887907417            0.0                           
0.25000714925163825           0.6000293345225278            0.0                           
0.5000283884116199            0.6000081701548342            0.0                           
0.7500087252529873            0.6000262659601934            0.0                           
1.0000250787115945            0.6000099079948255            0.0                           
1.2500105280524108            0.600022431651916             0.0                           
1.500020966479077             0.6000118055322976            0.0                           
1.7500124548946665            0.6000177465894255            0.0                           
2.0000159921141276            0.6000137554884047            0.0                           
2.2500143995735984            0.6000122008531793            0.0                           
2.500010168803848             0.6000156598575856            0.0                           
2.7500162712900558            0.6000058469943741            0.0                           
3.0000035641653464            0.6000174512708001            0.0                           
3.2500180200364204            0.5999987809944255            0.0                           
3.4999962929848807            0.6000191079673217            0.0                           
3.750019620493994             0.5999911450560941            0.0                           
3.9999884934154157            0.6000205826903804            0.0                           
4.250021038235256             0.5999830584483618            0.0                           
4.499980283474722             0.6000219133811537            0.0                           
4.750022338807337             0.5999746330462699            0.0                           
4.999971760844184             0.6000231813062311            0.0                           
5.250023605374995             0.5999659240998683            0.0                           
5.49996295752872              0.6000244777958749            0.0                           
5.7500249338495095            0.5999569160490534            0.0                           
5.9999538336275835            0.600025904766107             0.0                           
6.250026426934101             0.5999475200790931            0.0                           
[...]
POINT_DATA  4141
SCALARS Con float 1
LOOKUP_TABLE default
0.00016069512997605605
0.00017264909018881674
0.0001963039511728478
0.00022391878846899615
0.000255084422064661
0.00028988381606462864
0.00032837980936780407
0.0003705739591627479
0.0004164003464787877
0.00046572435515766986
0.0005183442112402713
0.000573994987753628
0.0006323546660527633
0.000693051522672957
0.0007556716434183929
0.0008197644233244858
0.0008848451492404455
0.0009503910408828411
0.0010159674718739694
0.001082184213025714
0.0011564408277075923
0.0012308854698362343
0.001297851369042619
0.0013615348880258984
0.001425181996110715
0.0014886019152270313
0.0015518839556043027
0.0016151969218871829
0.0016788272811532519
0.001743157610368454
0.0018086552513143634
0.0018758625174119655
0.0019453884054556417
0.0020179009209498806
0.002094119505752367
0.002174807135818671
0.0022607607944576556
0.0023527865591249507
0.002451476828731891
0.0025541768433478915
0.0026133147267805735
0.00016315008978379285
0.00017538209314241167
0.00019951468729544517
0.0002276442087675622
0.00025936255261955067
0.0002947428812900934
0.0003338382348513982
0.0003766398074414258
0.0004230712488153704
0.0004729878977513727
0.0005261788834137066
0.0005823718775432409
0.000641240310219305
0.0007024128592100262
0.0007654852605570655
0.0008300362819890064
0.0008956525238535294
0.0009620084692105986
0.0010289988495397525
0.0010982819013579522
0.0011683461043326682
0.001237238765930832
0.0013041304445967478
0.0013698953335103362
0.0014342847948530927
0.0014980456720317462
0.0015614482273277961
0.0016247906512173425
0.001688420493308675
0.0017527575402035728
0.0018182943009434475
0.001885592437032347
0.0019552771915427977
0.0020280309968102694
0.0021045865505751383
0.0021857191971490202
0.002272237445927769
0.002364958304275268
0.0024644808342018714
0.0025681939561874663
0.0026279844298342015
0.00016176652848858854
0.00017399336984733052
0.00019817708135524246
0.00022642853383369007
0.0002583302055036622
0.00029395167488693115
0.00033334101510685323
0.00037648405900164174
0.00042329897039592026
0.0004736359261420728
0.000527279888374865
0.0005839564824814269
0.0006433412392524008
0.0007050728563451718
0.0007687723860331943
0.0008340723265629629
0.0009006706352259401
0.0009683934843569375
0.0010374786038008315
0.001106099443310692
0.001171723832243854
0.0012372047175318321
0.0013046718075670357
0.0013712265656092974
0.0014364776111059348
0.0015006271778693662
0.001564101293041017
0.0016272817403046548
0.0016905791576652409
0.0017544527926282255
0.0018194222552747408
0.001886069810381049
0.001955038475754579
0.0020270278105486163
0.0021027883298202483
0.002183114791901062
0.002268837349900401
0.0023607970567910658
0.002459622539187135
0.0025627149888366525
0.0026221687133512776
0.00015936866105207057
0.00017161382562847622
0.0001958935813976336
0.00022434703444166527
0.0002565538175937203
0.0002925761711303042
0.00033245381421393415
0.00037616329962147796
0.0004236130406149504
0.0004746434517420357
0.0005290303017017714
0.0005864913704956117
0.0006466966871912689
0.0007092827894162591
0.0007738713302370882
0.0008400921957311487
0.0009075969930809639
0.0009760593793920302
0.0010446581294125546
0.0011123440896597617
0.0011790239697431562
0.0012450441652330443
0.001310895655974277
0.0013767535300449477
0.0014417586777597296
0.0015057552120459508
0.0015689262086288987
0.0016316142258240235
0.001694232495704807
0.0017572584741784943
0.001821233012246598
0.0018867604656337652
0.001954506887064882
0.0020251966200849434
0.002099607604313307
0.002178565469986223
0.0022629353680925298
0.0023535982131324606
0.0024512272941442327
0.002553296783654962
0.002612251998521673
0.0001559787688305594
0.0001682508250919206
0.00019267234686297344
0.00022141652740946072
0.00025405774889245903
0.00029064814128885286
0.0003312152297527128
0.0003757219683854592
0.00042406210636559933
0.00047606061143868776
0.000531477200362419
0.0005900129590598763
0.000651319965671361
0.0007150133689598252
0.000780684260706452
0.0008479070746095251
0.0009162327501469039
0.0009850974873829882
0.0010538595494741316
0.0011219835788377046
0.0011891684273956243
0.001255532865530409
0.001321275662880386
0.001386336617416092
0.0014506054470368008
0.0015139093462504343
0.0015763220911415618
0.0016381000319690136
0.0016996251130764522
0.0017613704948010885
0.0018238877786758874
0.0018878004659367118
0.001953799607291295
0.0020226396335710516
0.002095133821912309
0.0021721488890012347
0.0022545974987710727
0.002343415202901938
0.0024393398625177894
0.0025399469859297905
0.0025981823093502903
0.00015156672903451904
0.0001638789845400046
0.00018849312975555182
0.00021762236400364054
0.0002508333909216777
0.00028816471605436466
0.0003296276968572008
0.00037516714583005857
0.0004246569336812664
0.0004779004473144098
0.0005346339131253859
0.0005945324154412479
0.0006572182071504756
0.0007222702721550254
0.0007892327215329962
0.0008576186153099547
0.0009268997665801853
0.0009965162969648193
0.0010659166380348807
0.0011346367517644246
0.001202405901847682
0.0012691228521119241
0.0013347773498685888
0.0013993642228793206
0.0014628236821270337
0.0015251498819555708
0.0015864278255207313
0.0016468872193590109
0.001706886577317509
0.0017668925428273989
0.0018274641545513578
0.0018892431827310918
0.0019529475772337669
0.0020193663794371617
0.0020893550844019878
0.0021638307068235713
0.0022437650422840556
0.0023301627170077056
0.0024238441362576216
0.0025225167687281743
0.0025797951057382317
0.00014610230043381328
0.0001584708109875393
0.0001833346136766225
0.0002129500266485322
0.0002468731627284668
0.00028512522284987674
0.00032769733168355817
0.0003745116587624636
0.0004254170913564924
0.0004801895143091098
0.0005385347205984875
0.0006000937436242687
0.0006644502085981028
0.0007311388188833828
0.0007996537639264124
0.0008694555860878889
0.0009399821583260183
0.0010106686276990548
0.0010809854092279204
0.0011504899316051522
0.001218859942535289
0.0012859002443228627
0.0013515081675037678
0.0014156305682516627
0.0014782571238945988
0.001539428765090945
0.0015992781663338224
0.0016580474542724944
0.0017160967889190333
0.0017738970078969962
0.0018320195977422568
0.0018911278952142639
0.0019519703914563165
0.002015375572953377
0.002082247631860416
0.0021535622953547293
0.002230361208095524
0.002313731510706461
0.0024045933994284977
0.0025008179037244987
0.002556877525553446
0.00013955884908810608
0.0001520024694963023
0.000177178775303149
0.00020738822628001575
0.00024217285063572345
0.0002815327076553289
0.00032543474711749736
0.0003737743080073872
0.00042637065550055984
0.000482966899152232
0.000543232398643794
0.0006067675936229442
0.0006731110674381844
0.0007417485015269392
0.0008121231833205469
0.00088364905971891
0.0009557279685711322
0.0010277741662613798
0.0010992458558554646
0.0011696772105203122
0.001238702604360208
0.0013060620112658372
0.0013715912135176585
0.0014352076034131233
0.0014969013363342314
0.0015567427067191464
0.0016148936410719068
0.0016716215066352597
0.0017273042298483288
0.0017824295837809468
0.0018375899624838946
0.0018934763151510765
0.0019508728007723364
0.002010652610522998
0.002073774755044587
0.0021412812485916157
0.002214293161506369
0.0022939923688244327
0.0023814151944558477
0.0024746293117809386
0.0025291794161057656
0.00013192012037276901
0.00014445955752055025
0.0001700155714002988
0.00020093227603474028
0.00023673360830236222
0.0002773946192087049
0.0003228544763260112
0.0003729780855341385
0.00042755119791399647
0.0004862797014650642
0.0005487914162922773
0.0006146405460674769
0.0006833149249252944
0.0007542460994208804
0.000826822466857916
0.0009004058803442205
0.00097435248105778
0.0010480377222428345
0.001120883855727911
0.0011923860647843963
0.001262131772928383
0.0013298102979883743
0.001395213292914097
0.0014582306465649262
0.0015188481253627475
0.001577148561379827
0.0016333173132767323
0.0016876473380931555
0.0017405423661499542
0.0017925164244517178
0.0018441910134685225
0.0018962912793198754
0.0019496425334784861
0.0020051677465290096
0.0020638861121080004
0.002126912277340222
0.002195454784856822
0.0022708008464104373
0.00235411795722696
0.002443704516963206
0.002496420650103632
0.00012318825498095867
0.00013584426191683006
0.00016184836325475123
0.00019358768578767546
0.00023056368178047204
0.00027272268608321724
0.00031997308795094653
0.0003721466557949108
0.0004289927190693158
0.0004901764116666328
0.0005552795693861428
0.0006238047243135761
0.0006951826244686311
0.0007687835747180833
0.0008439327728324627
0.0009199296864243295
0.0009960711698471833
0.0010716773295428878
0.0011461181198133593
0.0012188377187708796
0.0012893737816645644
0.0013573697319741933
0.001422580454625252
0.001484873625589213
0.001544229338385657
0.001600740239697254
0.0016546123046472386
0.0017061657225338207
0.001755834789072547
0.0018041665038087673
0.001851818182827158
0.001899554993075319
0.0019482481854427617
0.001998874602561449
0.002052517580758134
0.002110368928775881
0.0021737305918232926
0.002244003482590293
0.0023224992888780825
0.002407781743396919
0.0024583022097783287
0.00011339341657622565
0.00012618375264720704
0.00015270004117833778
0.00018537383877152903
0.00022367960532876065
0.00026753170160663845
0.0003168057520086165
0.00037129897046715075
0.0004307226531132814
0.0004946986767494058
0.000562758949929289
0.0006343486113556526
0.0007088336712508233
0.0007855135320456469
0.0008636384554913213
0.0009424316300431504
0.001021114925655681
0.0010989368012075777
0.0011752001922490259
0.0012492879270173014
0.0013206834231215328
0.0013889853728931963
0.0014539163804686039
0.0015153266458579296
0.0015731943993490282
0.0016276245351460352
0.0016788464758920637
0.0017272114785197986
0.001773189667607399
0.0018173668869678444
0.0018604419027212734
0.0019032245561788916
0.0019466354872331147
0.0019917078183168597
0.002039590874298378
0.0020915556338354964
0.002149000511298089
0.0022134454368150217
0.002286356437061431
0.0023665969971037246
0.0024145205932639036
0.00010260497317650066
0.00011553978119727988
0.00014261964446645503
0.00017632746011097053
0.00021610651487506682
0.00026183684242097043
0.00031336086730074966
0.00037044167711707004
0.0004327526701023772
0.0004998712367581977
0.0005712758999267159
0.0006463481156312866
0.0007243797480536801
0.0008045867890043541
0.0008861292738040689
0.0009681366981799051
0.001049737521654644
0.0011300907305763653
0.001208416996505176
0.0012840269376195451
0.001356344342285337
0.001424923077560638
0.0014894573789996392
0.0015497862278455413
0.0016058930642225033
0.0016579023108036221
0.0017060740435301896
0.0017507978289177562
0.0017925866405577046
0.0018320715512369218
0.0018699979371194074
0.0019072238455013107
0.0019447210493466311
0.001983579091288711
0.0020250123319587175
0.0020703696249299718
0.0021211452337245203
0.0021789794740851086
0.002245498988582183
0.0023199002727579032
0.002364785898654505
9.094401491111946e-05
0.00010401916520260968
0.00013168911607300005
0.00016650543904037906
0.00020787710245670718
0.00025564899668170345
0.00030963223181579877
0.00036955880561487486
0.0004350667512329656
0.0005056894523986405
0.0005808491885334104
0.0006598566582820189
0.0007419179228115521
0.0008261495145199773
0.0009116015763442214
0.0009972879352407441
0.001082221118993439
0.0011654496370076975
0.0012460944855243697
0.0013233819375681238
0.001396670199149924
0.001465468473133666
0.0015294479637211328
0.0015884454666310391
0.0016424608231647455
0.001691650003967769
0.0017363156426132632
0.0017768966359529264
0.0018139583820667275
0.0018481847486738964
0.0018803728627995481
0.0019114314193820559
0.0019423830654840355
0.001974371102401858
0.0020086704477639793
0.002046702419391626
0.0020900519346286252
0.0021404761582846815
0.0021997636915403653
0.002267474924103441
0.0023088436466112586
7.859652646900963e-05
9.178452270393378e-05
0.00012002952116090886
0.00015598638318691088
0.00019902861397326363
0.00024896756700076194
0.0003055882153202059
0.0003685981507638292
0.00043760591253654246
0.0005121037393057044
0.0005914556672876753
0.0006748935216495506
0.0007615228807043267
0.0008503400163111129
0.0009402595572929217
0.0010301512825414726
0.0011188832272374027
0.0012053674316038704
0.0012886043242146803
0.0013677219199739713
0.0014420068789941592
0.0015109255838355292
0.0015741348158897254
0.0016314828120036476
0.0016830024971987954
0.0017288991950416511
0.001769535349375269
0.0018054146284247215
0.001837167443120949
0.0018655395802732733
0.0018913851420749007
0.0019156646946348623
0.0019394491180531456
0.0019639293884890076
0.0019904321900307198
0.0020204408869986816
0.00205562031097368
0.0020978351280638652
0.002149031246905296
0.002209160069485702
0.002246500349596134
6.582595516358093e-05
7.906405357008838e-05
0.0001078057587453979
0.00014487010747382003
0.00018959736565570519
0.00024177033394925801
0.0003011575500293972
0.00036745392857625176
0.0004402490984550853
0.0005190004445801206
0.000603013024032349
0.0006914302788754636
0.0007832384514970097
0.000877286105460849
0.0009723183551344681
0.0010670234403016873
0.001160087655658455
0.0012502534157522729
0.0013363748443398042
0.0014174657678904421
0.001492736174848535
0.001561614955980827
0.0016237586453814782
0.0016790475597803286
0.001727571983282942
0.0017696118144982515
0.001805613096847027
0.0018361647726040907
0.0018619782541140048
0.001883871944965045
0.0019027620530572772
0.0019196606254448807
0.0019356811996409308
0.0019520522335767054
0.001970138205607785
0.001991467977577863
0.002017769017678923
0.0020509972455751988
0.0020932447136774507
0.002144875588821966
0.00217765226895887
5.298301865080238e-05
6.615847436362649e-05
9.52282752243619e-05
0.00013327436205987078
0.00017961055675997964
0.0002340004908959316
0.0002962118360616374
0.00036594562380045016
0.0004427901108594493
0.0005261790745372154
0.0006153597345413841
0.0007093757607616233
0.0008070693902473778
0.0009071046858957783
0.0010080113153721326
0.0011082455053185523
0.0012062622473682529
0.0013005911746754024
0.0013899080406066478
0.001473094534749643
0.0015492811962078503
0.0016178708521616596
0.0016785428133421145
0.0017312403845834707
0.0017761460265582646
0.0018136490379407405
0.0018443107980258514
0.0018688318162304591
0.0018880239463972854
0.0019027901404047338
0.0019141131165282155
0.0019230536517819508
0.0019307586857796747
0.001938479141726353
0.0019475973342312578
0.001959663814920166
0.001976442900851153
0.0019999582169389035
0.002032428896724717
0.002074648887825875
0.002102317146804501
4.0508935322314044e-05
5.344205430247649e-05
8.255035706125848e-05
0.00012132830798819793
0.00016907632826196884
0.00022555181406260888
0.0002905450987538999
0.0003637934167624989
0.00044491109627782174
0.0005333265206444868
0.0006282330034901797
0.0007285606665722145
0.0008329750987859897
0.0009399058971322849
0.0010476044112356787
0.0011542258359666852
0.0012579268450302918
0.0013569674068133106
0.0014498047429244785
0.0015351690001434663
0.001612113461741739
0.0016800365220943816
0.0017386768558313014
0.0017880866150850802
0.0018285895704932915
0.0018607316358454612
0.0018852306776694504
0.0019029312498185028
0.001914768083096874
0.0019217408557212123
0.0019249012095189763
0.0019253522927215232
0.0019242604392233906
0.0019228785019826998
0.0019225804180633334
0.0019249069319704245
0.0019316232126057574
0.0019447832727640803
0.0019667121291386345
0.001998641744241775
0.002020664307536349
2.8929498781847666e-05
4.1354423572438846e-05
7.005817029408127e-05
0.00010916621549277651
0.0001579748082946157
0.00021625177578059646
0.00028385116999228577
0.0003605918595856599
0.0004461545924883312
0.0005399902456112547
0.0006412465983574105
0.0007487238793482026
0.0008608677876995644
0.0009758051404055562
0.0010914219433713927
0.00120547674803874
0.001315736113273384
0.0014201145310391678
0.001516800533287853
0.0016043534218437802
0.0016817609447988741
0.001748455357674181
0.001804291935765301
0.0018494988614490369
0.0018846096713990878
0.0019103894799002436
0.001927764454703508
0.0019377614727325305
0.0019414621783096569
0.0019399733535724853
0.0019344138232683123
0.0019259171152613181
0.0019156486482856902
0.0019048362542685275
0.0018948131298869176
0.001887072958555448
0.0018833372234026732
0.001885636629032319
0.0018963444759189083
0.0019171782373539118
0.0019330550380773938
1.8820879930473465e-05
3.037560668690256e-05
5.806832392886127e-05
9.692646650991998e-05
0.00014624202590332274
0.00020584152192385408
0.00027570249943463895
0.0003557868813200386
0.00044589913896057605
0.0005455546397372046
0.0006538719956868191
0.0007695035987894146
0.0008906185514239524
0.001014947267275977
0.0011398888162886054
0.0012626710414371232
0.001380542989375769
0.001490971767342846
0.0015918150590935349
0.0016814456287145656
0.0017588148217215541
0.0018234539610615685
0.001875423247564309
0.001915224188436403
0.001943693867802602
0.001961897576839601
0.0019710324313403967
0.0019723499392522497
0.0019671011959440654
0.001956505181883763
0.0019417385937527357
0.0019239447635638295
0.0019042592805188607
0.0018838500527067193
0.0018639706760903833
0.001846026182684379
0.0018316516847885365
0.0018227970169370157
0.0018217998569719748
0.0018307535059460182
0.0018400096158956694
1.0849825024606843e-05
2.1035201773609442e-05
4.692255178232229e-05
8.472237160424947e-05
0.00013376145555277054
0.00019398840902631217
0.0002655711784544281
0.000348698295109643
0.0004433792848617463
0.0005492587757043733
0.000665457690694154
0.0007904645051730539
0.0009220992276164284
0.0010575677424335852
0.0011936110240752644
0.001326735862212712
0.0014534946064419423
0.001570768851574636
0.0016760098416966555
0.00176739912746143
0.0018439120508441803
0.0019052878107433595
0.0019519265157719623
0.001984742277375899
0.002005001584024498
0.002014171019561166
0.00201378999255558
0.002005376275651047
0.001990365751979665
0.001970083649589602
0.0019457426477843761
0.0019184628971803956
0.0018893097376359946
0.0018593461885859188
0.0018296987259865166
0.0018016362022284056
0.0017766618779571394
0.0017566213824906469
0.0017437578255227217
0.0017404791659698948
0.0017426605165120847
0.00012357190121572997
0.00018416695435339266
0.000343612366120196
0.0006811439853176247
0.0008167957241430024
0.0011083100808642814
0.0012565663104667198
0.0015364740098366457
0.0016600734862013895
0.0018600927166806758
0.001933764422329244
0.001989729690065424
0.002028910191238185
0.0020527872737747693
0.0020631712594036612
0.0020620002773232755
0.0018702489924965896
0.0018316386725765583
0.001691216051840787
0.0016674889980958668
0.001648269326044047
5.790360142201964e-06
1.4756515489219789e-05
3.8693013305451234e-05
7.511867292054655e-05
0.00025734869147645435
0.0004432407490477691
0.0005560458600380198
0.0009603483198222867
0.0014007156203087831
0.0017685820104097688
0.0020511855306765366
0.00203250756255624
0.0020075599019029077
0.001977732188611266
0.0019442239802845954
0.0019080811375719968
0.0017932054930098558
0.0017560402725558682
0.0017214769769674702
0.0016528510982872146
3.5773330962147163e-06
1.1055144639942445e-05
3.2665692687566824e-05
6.715965396552744e-05
0.00011407209857915432
0.0001736573504676881
0.000246565100652532
0.0003335487230529214
0.00043514786250438355
0.0005513791295201298
0.0006814537927488145
0.0008235659928206517
0.0009748009442972581
0.0011312073882481077
0.001288053046329323
0.0014402403221593003
0.0015828143271398446
0.0017114645178947507
0.001822920474935783
0.001915172338387794
0.0019874960199901025
0.0020403103778133718
0.002074924325488909
0.0020932394757956236
0.0020974641808805795
0.0020898753444609465
0.002072644785465502
0.0020477312082915547
0.0020168293766583776
0.0019813641693300164
0.0019425169572590642
0.0019012743575161828
0.0018584919417392
0.001814969272773993
0.0017715351608709822
0.001729144403809071
0.0016889904571422514
0.001652634427267124
0.0016221655311757057
0.0016002168909114288
0.0015914362233441215
2.532746164139349e-06
8.590874243050168e-06
2.796488675477765e-05
6.05497129746027e-05
0.00010592654077494784
0.0001644762833101964
0.00023708237561288216