# vtk DataFile Version 2.0
time_10.vtk
ASCII
DATASET UNSTRUCTURED_GRID
POINTS   4141  float 
6.72119359093006e-05          4.149811041958554e-17         0.0                           
0.24999999999999872           6.422181673473748e-05         0.0                           
0.5000624708449086            1.9558416581477577e-17        0.0                           
0.75                          5.838755995552892e-05         0.0                           
1.0000560322399414            2.3962690942022116e-17        0.0                           
1.25                          5.065079486731171e-05         0.0                           
1.5000476133366343            7.493791538982868e-17         0.0                           
1.75                          4.083226813264981e-05         0.0                           
2.000037089878683             -2.722421207520496e-17        0.0                           
2.25                          2.8920250991654e-05           0.0                           
2.5000245072537908            -6.362066155191913e-18        0.0                           
2.7500000000000018            1.5083711389480887e-05        0.0                           
3.0000101168451523            -1.3012940088226945e-16       0.0                           
3.25                          -9.03577424919957e-18         0.0                           
3.499993963881438             6.609771493144275e-17         0.0                           
3.75                          -1.809237440867027e-05        0.0                           
3.9999757533895197            1.800239365505626e-16         0.0                           
4.25                          -3.6874258838676105e-05       0.0                           
4.4999566556881865            -6.035694151896129e-17        0.0                           
4.750000000000001             -5.6581500175116866e-05       0.0                           
4.999936655171144             3.518873402742532e-17         0.0                           
5.25                          -7.716270011684397e-05        0.0                           
5.499915776688465             2.4532206206997616e-17        0.0                           
5.75                          -9.867760587615124e-05        0.0                           
5.999893910957487             8.828252152413982e-17         0.0                           
6.249999999999999             -0.00012133881031434296       0.0                           
6.4998707944839476            -2.6945696715028287e-17       0.0                           
6.75                          6.696956094367269e-05         0.0                           
7.000065557414564             4.162682900045255e-06         0.0                           
7.250004604659055             6.223563167716209e-05         0.0                           
7.500060296531116             5.556148646098706e-06         0.0                           
7.750006061031811             5.579973061819903e-05         0.0                           
8.000053222572317             7.115638875232537e-06         0.0                           
8.250007659554768             4.7377046730691566e-05        0.0                           
8.500044101413948             8.76574227515116e-06          0.0                           
8.750009322134662             3.6841849315963575e-05        0.0                           
9.000032863018316             1.042742601892822e-05         0.0                           
9.250010971001887             2.4234786319640387e-05        0.0                           
9.500019602014193             1.2027195476292593e-05        0.0                           
9.750012534402048             9.74801601912803e-06          0.0                           
10.00000452427827             1.3494887551115842e-05        0.0                           
1.40686657445069e-05          0.2999934235437819            0.0                           
0.24998756826785093           0.30001505808965956           0.0                           
0.5000154802981996            0.2999754140444569            0.0                           
0.7499691568844643            0.3000163027113808            0.0                           
1.000016703340905             0.2999563178183808            0.0                           
1.2499497455223598            0.30001748898054476           0.0                           
1.5000178778682702            0.29993631041519314           0.0                           
1.7499294490272521            0.3000186599188658            0.0                           
2.0000190585525135            0.29991542858495557           0.0                           
2.249908259693575             0.3000198854528458            0.0                           
2.5000203195265533            0.2998935650449131            0.0                           
2.749886017672532             0.30002124281688497           0.0                           
3.0000217370943534            0.2998704555803542            0.0                           
3.2498624094304223            0.30002280187937              0.0                           
3.5000074757294706            0.3000648380909361            0.0                           
3.7500632725898924            0.300009195850673             0.0                           
4.000010127971811             0.30005959530377774           0.0                           
4.250057456390349             0.300012114544923             0.0                           
4.500013158524692             0.3000525236549265            0.0                           
4.750049714012612             0.3000153191838246            0.0                           
5.0000164239370335            0.3000433841742247            0.0                           
5.250039860594823             0.3000186526708934            0.0                           
5.500019765273796             0.30003210248138845           0.0                           
5.750027875836755             0.3000219606733185            0.0                           
6.000023034223029             0.3000187566049726            0.0                           
6.250013876010507             0.30002511633031886           0.0                           
6.5000261257669125            0.30000347938409144           0.0                           
6.749997999207896             0.3000281556360466            0.0                           
7.000029142870351             0.29998652508541157           0.0                           
7.2499805419970595            0.3000309463099219            0.0                           
7.500031789137651             0.2999681573316644            0.0                           
7.749961785496083             0.3000334133205035            0.0                           
8.000034203309813             0.29994872614423845           0.0                           
8.249942048855281             0.30003576052473163           0.0                           
8.500036537562135             0.2999284101713932            0.0                           
8.74992144736504              0.30003811575186495           0.0                           
9.000038928507834             0.2999072159841892            0.0                           
9.249899933639387             0.3000406308228433            0.0                           
9.500041531883518             0.2998849859375326            0.0                           
9.749877294945549             0.3000434604250134            0.0                           
10.000044497218596            0.29986140197357075           0.0                           
6.502845484664726e-05         0.6000111740813856            0.0                           
0.2500124285301586            0.6000620850974439            0.0                           
0.5000603526791786            0.6000151622352018            0.0                           
0.7500166290900182            0.6000562919715215            0.0                           
1.000053939291888             0.6000197246213645            0.0                           
1.2500213361986132            0.6000485433758829            0.0                           
1.500045488078607             0.6000246421626404            0.0                           
1.7500263185444174            0.6000386484080007            0.0                           
2.000034864300556             0.6000296747966972            0.0                           
2.250031338671948             0.60002658146928              0.0                           
2.500022092463928             0.6000346035749446            0.0                           
2.750036194617382             0.6000124486091097            0.0                           
3.0000073065520274            0.6000392891901957            0.0                           
3.250040798006365             0.5999964462580661            0.0                           
3.4999907601741316            0.6000437147457867            0.0                           
3.7500450957127356            0.5999789175117693            0.0                           
3.999972777955531             0.6000476951878055            0.0                           
4.250048932002501             0.5999601216768063            0.0                           
4.499953626723866             0.6000513228079415            0.0                           
4.7500524912995905            0.5999403398624508            0.0                           
4.999933555988138             0.6000548125378055            0.0                           
5.250055981819195             0.5999197113528589            0.0                           
5.499912645674475             0.6000583816191271            0.0                           
5.750059630199912             0.5998981987894837            0.0                           
5.999890799520416             0.6000622692582849            0.0                           
6.2500636765837285            0.5998755886379208            0.0                           
[...]
POINT_DATA  4141
SCALARS Con float 1
LOOKUP_TABLE default
0.0004512153485252089
0.0005099288433675854
0.0006239098767048987
0.0007594260167971743
0.0009151829487697575
0.001092008483566862
0.0012905742689462523
0.0015112018173991193
0.0017538260922775504
0.002017983581843459
0.0023028146516929906
0.0026070781270448457
0.002929175098790466
0.003267176568496716
0.003618845684650777
0.003981638603606037
0.004352672773940486
0.004728697117247841
0.005106980604466682
0.005495906402042499
0.005963032728309114
0.006434373134001555
0.006839257940923215
0.007224010269519287
0.0076133735640916255
0.008005560818861373
0.008400602753241183
0.00879904413067477
0.0092022118974572
0.009612049206166273
0.010031029246279244
0.010462084727224088
0.010908550426261068
0.01137411072114951
0.01186274824156344
0.01237869078834929
0.012926349806587287
0.013510174171176602
0.014133357853151519
0.014779604084137272
0.0151532311873206
0.00045847602650388733
0.0005186991086878817
0.0006351183524810758
0.0007733400702580927
0.0009320719179353724
0.0011120936886536772
0.001314026039422312
0.0015381354121085686
0.0017843007602944786
0.002052004792625302
0.0023403403934696178
0.0026480310692367447
0.002973464581947629
0.0033147395032914477
0.0036697275823995485
0.00403617058591401
0.004411868944653888
0.004795320773108266
0.005187245587995603
0.0056015081492390975
0.006027754328093169
0.006450367419026971
0.006861210411278862
0.0072646397196933984
0.007661562661660032
0.00805766915704164
0.008454660820590647
0.008854166737297785
0.009258017475543657
0.009668448492274098
0.01008812111506091
0.010520106561280875
0.010967852310049667
0.011435141083424053
0.011926045029697033
0.01244487514140647
0.012996120310778292
0.0135843022587546
0.014212657201161818
0.014865131652756833
0.015242809325408663
0.0004532065955610099
0.0005132879948675289
0.0006297689015681209
0.0007683775528718128
0.0009277996660234328
0.0011088105574496505
0.0013120197057163415
0.0015376808996976378
0.0017856611581608128
0.002055435428196499
0.00234609845186738
0.0026563947806111598
0.002984770026744936
0.0033294507198732793
0.0036885713739399973
0.004060388115791626
0.004443699075104691
0.0048384007048576025
0.005247390466281085
0.005657422718062421
0.006044211797879633
0.006433838342761815
0.006848463236905059
0.007261117755028157
0.007666923295878383
0.00806784201956283
0.00846693602325344
0.008866630378045979
0.009269322240898254
0.009677593756719042
0.010094335029436867
0.010522782951663858
0.010966520978534412
0.011429457245337546
0.01191579009713178
0.012429964354112305
0.012976614321440656
0.013560417778048874
0.01418478610452711
0.01483368620881286
0.015209351481643232
0.00044403615802240514
0.0005040351370268236
0.0006206494412900153
0.0007598827173431914
0.0009204355172590813
0.0011030694431627853
0.0013083740562923028
0.001536579076723229
0.001787526354113109
0.002060667803523329
0.002355081628544228
0.002669508426640958
0.00300241048304209
0.0033520594537557674
0.0037166574134084142
0.004094491783433291
0.004484012596062028
0.00488370812221458
0.005287951073329808
0.005687891633776632
0.006083637781684405
0.0064790563251712965
0.006879080411435873
0.0072857705288863
0.007690949663000594
0.00809243139091183
0.008491141579652887
0.008889102829183225
0.009288712832671723
0.009692689630462716
0.010104083108905093
0.010526292688539298
0.010963067002966566
0.01141848791002888
0.011896942047310533
0.012403081805818025
0.0129417709470414
0.013517939024982835
0.014135265061183644
0.01477812501173001
0.01515083308062239
0.0004311134189490973
0.0004909912158333332
0.000607812369813781
0.0007479392863129309
0.0009100896618909453
0.0010950055560186166
0.0013032452813209684
0.0015350001383953203
0.001790068444079243
0.0020678548846531425
0.002367387209069252
0.002687350778442485
0.0030261410061318376
0.003381930062002439
0.00375273419598846
0.004136429522844958
0.0045306270460601875
0.00493187051774762
0.005335684528815084
0.0057384629320157655
0.006138322788119274
0.006537030939415967
0.006936928869837993
0.007337647364480052
0.007738005163339501
0.008135846937420182
0.008530932876730749
0.008924452695570274
0.009318462454012345
0.009715590047997944
0.010118930428822507
0.010532000707093014
0.01095871400075843
0.011403353936500365
0.01187054413480391
0.012365209761924654
0.012892524083306277
0.013457763665756918
0.014065004097478765
0.014699241475041341
0.015067738244265143
0.000414370199411925
0.00047410587673376003
0.0005912138954815577
0.0007325122607297662
0.0008967358699744039
0.0010845981173591124
0.0012966137632080032
0.0015329197964151287
0.0017932503622794264
0.002076935177336386
0.0023829129643566723
0.0027097589849938084
0.0030557237166087235
0.0034187744288807775
0.003796619799729322
0.004186687084417655
0.004585980455359254
0.004991075608792566
0.005398468376137608
0.005805179247765792
0.006209744544195533
0.00661195697901093
0.007012162632548711
0.007410468898867877
0.007806132941850057
0.00819853661557487
0.00858754629665975
0.008974038516602426
0.009359791066626199
0.009747303591044873
0.010139668537023186
0.01054049540258604
0.010953861870954342
0.01138427615570047
0.011836641261762912
0.012316215403121633
0.012828559630346473
0.013379396495683
0.013973327223364994
0.014596148860941594
0.01495902275871458
0.0003937669343597655
0.0004533411542266084
0.0005708237285019614
0.0007135795080964374
0.0008803592562592849
0.0010718376519295962
0.0012884733871854374
0.0015303338568585325
0.0017970696071358616
0.002087909908643693
0.002401670892925514
0.0027367748918367095
0.0030912778054240104
0.003462897654383138
0.0038490348897967336
0.004246774799531428
0.004652919476328244
0.0050641129080617004
0.0054771165057499165
0.005889241776090441
0.006298603006189981
0.006704167124986523
0.007105428079477604
0.00750200373052771
0.007893560032412436
0.008279873324449367
0.00866120670465081
0.009038498201922304
0.009413467171709088
0.009788571823920924
0.010166933885884265
0.010552270949249102
0.010948843983727126
0.01136141508328566
0.011795209632207126
0.012255877347587932
0.012749442794742553
0.013282169855288045
0.013859299432633072
0.014467615884526212
0.014823302660465268
0.00036931043697475046
0.0004287024460496092
0.0005466462246163765
0.0006911467843808007
0.0008609670806643295
0.0010567325372331622
0.0012788345034656318
0.0015272582395221626
0.0018015554757262657
0.0021008357085804544
0.00242376830461199
0.0027685949627487207
0.003133151274962001
0.0035148953158720955
0.003910942424845559
0.004318117140932392
0.004733042858566915
0.005152296994295449
0.0055726390339779375
0.0059912462170167696
0.00640589597816634
0.0068149876681260525
0.007217442031285799
0.007612566103932114
0.00799996859907954
0.00837962774718565
0.008752005961251648
0.009118196627906368
0.009479997769341974
0.00983993059072903
0.010201211716590866
0.010567710724617674
0.010943908028551072
0.011334857366380038
0.011746151720157963
0.012183889035886752
0.012654628821229565
0.01316526459673057
0.013721788952256554
0.014312183063586158
0.014658929959470622
0.0003410879906310467
0.00040026668658392365
0.0005187428773540983
0.000665262935683003
0.000838596602888971
0.0010393096584634836
0.0012677174549249786
0.0015237152256886706
0.001806746996398692
0.002115791001886262
0.002449355084880033
0.0028054833794472324
0.003181775721391242
0.003575421485900214
0.0039832520541753635
0.0044018193763623766
0.004827510936749336
0.005256705937614755
0.005685959144909222
0.0061121833504925085
0.006532781911424291
0.0069457098330290585
0.0073494649468426685
0.007743048980002388
0.008125951602781888
0.008498172540253736
0.008860288992802862
0.009213525959052931
0.009559812351441654
0.00990180261273162
0.010242871514318429
0.010587091981543454
0.010939207457628055
0.011304604831513916
0.011689289428097485
0.012099860147785644
0.012543476464717972
0.013027743694092955
0.013559516288181679
0.014128194056466321
0.014464025069755661
0.00030930517641201077
0.00036821564927130623
0.0004872565752477234
0.000636034735519341
0.0008133201121365551
0.0010196095038506206
0.0012551377408498298
0.0015197086287127024
0.001812657537946646
0.0021328284253601874
0.0024785607355030936
0.0028476896459800373
0.003237563545717565
0.0036450828200995946
0.004066764341492336
0.0044988361234876975
0.0049373642502895995
0.005378407842991215
0.00581818883116222
0.0062532535107564765
0.006680603478301562
0.00709778050499247
0.007502908460443874
0.007894709627508722
0.008272516099281552
0.008636293370605537
0.008986674928178888
0.009325001508593209
0.009653351180685152
0.009974554541466767
0.010292193917903907
0.010610592298303762
0.010934797935302661
0.011270569651542148
0.011624364641928508
0.012003327605711312
0.012415273455465429
0.012868591831336292
0.013371101835138207
0.013913853332482315
0.014236538956831184
0.00027432831054913714
0.00033287232814087987
0.00045243694545179706
0.0006036402840995118
0.000785245996770066
0.0009976748131971804
0.001241082545347617
0.0015151887828140163
0.00181922902608657
0.0021519191936414084
0.0025114304147756754
0.002895379970829368
0.003300844484654205
0.003724400800829673
0.004162198683579405
0.0046100671532261
0.005063652340724056
0.0055185793175204605
0.005970624342632143
0.006415880440466458
0.00685089969846784
0.007272802181641242
0.0076793502517136175
0.008068995391285574
0.008440908736465105
0.008795004066696515
0.009131958259281184
0.009453227877684644
0.009761060008414079
0.010058495114125753
0.010349363209074598
0.010638276565424726
0.01093062324549937
0.011232564786374787
0.01155103946444349
0.011893769898004397
0.012269267298631415
0.01268676291495679
0.013155129895369965
0.01366730427393185
0.013974338514273136
0.00023672979954222553
0.0002947389726607897
0.0004146650268877427
0.0005683393794575513
0.0007545144062388273
0.0009735316440218653
0.0012254779049632072
0.0015100072086077247
0.0018262762802170396
0.002172890245306388
0.0025478594753513906
0.0029485761802774436
0.0033718192242989044
0.003813794045171306
0.004270211780031266
0.004736407859964528
0.005207495475232542
0.005678544130619573
0.006144769171670428
0.006601716063627085
0.007045424540957213
0.007472562233667714
0.007880523755098155
0.008267497420430559
0.008632505379952303
0.008975424345296846
0.009296992777655413
0.009598808724063792
0.009883321410644727
0.01015381937491854
0.010414418531734382
0.010670054177029804
0.010926480607940055
0.011190281120299267
0.011468889207864874
0.011770619298895786
0.012104699146053612
0.012481236968851289
0.012910228662720498
0.01338673084739189
0.013675319428303478
0.0001973329229882822
0.00025453362725021546
0.000374474609435983
0.0005304786300839856
0.0007212857526558373
0.000947161474443409
0.0012081454763627408
0.0015038601062275024
0.0018334204747595061
0.002195352324760032
0.0025875223839075864
0.0030070932413429727
0.003450514290924392
0.003913557672161891
0.004391403983411479
0.004878777102172519
0.005370121478415488
0.005859809590176243
0.006342363040748864
0.006812669194329723
0.00726617654668698
0.007699056334679123
0.008108323567988095
0.00849191675382369
0.008848740278767477
0.009178676406195055
0.009482575073050763
0.009762229465497981
0.010020345056913618
0.01026050883142302
0.010487165035289667
0.010705602793515394
0.010921959964061926
0.01114324587849501
0.011377383510574322
0.011633268837128622
0.011920839071164362
0.012251085424667534
0.01263516645035791
0.013070483547723022
0.013337547852169031
0.00015725059104006766
0.00021322014265386536
0.0003325663920236059
0.0004904885720914684
0.0006857203039384742
0.0009184634550944165
0.0011887484370424004
0.0014962201337890663
0.0018400106554944985
0.002218616883537311
0.0026297923082746217
0.0030704698505190538
0.0035367316399381797
0.004023837788777754
0.004526320393835967
0.005038141590833992
0.005552906633433392
0.006064115847262071
0.006565434340984227
0.007050956434605022
0.007515443539923407
0.007954518951392193
0.008364809866603621
0.008744034222250799
0.009091036468333983
0.009405781115755085
0.009689315700091275
0.009943715711645046
0.010172023639172904
0.010378193099888708
0.010567047176961452
0.010744258402295336
0.010916355509485876
0.011090760072376908
0.011275853590937145
0.011481072472861025
0.011717021340311499
0.011995543598752332
0.012328962934427033
0.012717229331666885
0.012959431617665705
0.00011790884519046751
0.00017202403910858438
0.00028980963125628556
0.00044886983638626674
0.0006479481611024926
0.0008872075546850722
0.001166727906801108
0.0014862577551276817
0.0018450339384353113
0.002241601592979312
0.002673650385354823
0.003137890940716294
0.0036299934854228904
0.004144605497714848
0.004675457104789748
0.005215552848957975
0.0057574375634075105
0.006293514234184742
0.006816384869222106
0.007319182979433306
0.007795868586068696
0.008241463318365392
0.008652212535491659
0.009025671595315105
0.009360722540088868
0.009657534458953647
0.009917484691938096
0.010143059567227745
0.010337752227377532
0.010505973042409201
0.01065298477710457
0.010784871753166453
0.010908548907759793
0.011031814204189921
0.0111634452947224
0.011313338416113757
0.011492680112012038
0.011714089121323603
0.011991013611186773
0.012326123567851706
0.0125399189238794
8.104205378290291e-05
0.0001324234222243532
0.00024722483262146124
0.00040616672101722505
0.0006080315819789195
0.0008529829933977384
0.0011412348610546916
0.0014727564666003512
0.0018470179923779908
0.00226272730893237
0.00271758705706351
0.0032081048753972077
0.0037294868568526597
0.004275638253146333
0.004839284557042898
0.005412212092769881
0.005985611124177314
0.00655049022581971
0.007098120319621666
0.007620463285399925
0.008110543887111611
0.008562733913747799
0.008972931719843594
0.009338635383290588
0.009658921144795577
0.009934348243809326
0.01016681640850108
0.010359403035491585
0.010516204710765586
0.010642203420085787
0.010743172603752411
0.010825633283168327
0.010896866296655651
0.010964983503191186
0.011039058815244406
0.011129318818104889
0.011247387398102649
0.011406529640802696
0.011621223250341319
0.011896998744327121
0.012078722916839806
4.864059990697732e-05
9.610075686965892e-05
0.00020594176874973356
0.00036292916195410714
0.000565928084714769
0.0008151519867181856
0.0011110658581090678
0.0014540304224622204
0.0018439343374187969
0.002279814320305937
0.002759502362946264
0.003279341991088394
0.0038340157469009812
0.00441651911182276
0.005018302341238234
0.005629581034545399
0.006239792359871847
0.0068381511258070885
0.007414243979481971
0.007958594629104433
0.008463139704599238
0.008921571700943863
0.009329528267982301
0.009684630506408566
0.009986392506819514
0.010236037061252895
0.010436257795471575
0.010590966851030342
0.010705061365208294
0.010784234361920452
0.010834847042876784
0.010863872491157226
0.010878914992734664
0.010888305709613163
0.01090127392354863
0.010928193366932223
0.010980906981155893
0.011073098684189698
0.011220157549349274
0.011430558787404
0.011576544501851858
2.2833488777578378e-05
6.483896468319036e-05
0.0001671265731671473
0.00031968145988075337
0.0005214717489863629
0.0007728158958369595
0.001074614249689299
0.0014278603623263362
0.0018331191995896402
0.0022899930903503883
0.002796617820485048
0.003349245174254503
0.003941971529389743
0.004566667163145833
0.005213143009055645
0.005869560944779733
0.006523056361661548
0.007160504569541906
0.007769336246520836
0.008338299045486067
0.008858074324180697
0.009321687816288966
0.009724690512310464
0.010065123617601002
0.01034330980080237
0.010561529234687278
0.010723642156612576
0.010834713675405129
0.010900684331653561
0.010928116111907879
0.01092403071762323
0.010895846777649973
0.010851415832421243
0.010799153318780159
0.010748259614735436
0.010709028232874713
0.010693239137834721
0.010714646117851535
0.01078917989643754
0.010928586885527156
0.01103536072182534
8.579878846158445e-06
4.03529019329594e-05
0.0001319356251110029
0.0002769208270290725
0.00047434732873224847
0.0007247985989654725
0.0010298618604527078
0.0013914798220330809
0.0018112438652215857
0.002289656538245475
0.002825420905165532
0.0034148285498508853
0.004051335908620519
0.004725415381508206
0.005424746787479014
0.006134768553216701
0.006839547294622065
0.00752286114891863
0.008169347153371349
0.008765548913823903
0.00930072492459943
0.009767330104821751
0.010161149308102352
0.010481120813307238
0.01072892999169499
0.010908470249081688
0.011025266033878468
0.011085934860149835
0.0110977421514134
0.011068279289845136
0.011005276360301295
0.010916547987917236
0.010810063907301324
0.010694133052878946
0.010577691602033134
0.010470686397361997
0.0103845514915354
0.010332732798404878
0.010331131422962117
0.010394047183697477
0.010458292405223411
2.248834267330647e-06
2.4148030494190526e-05
0.00010144283546643359
0.00023500940602450468
0.00042412649810004345
0.0006698032274891352
0.0009746026351701177
0.0013418237638934299
0.0017745556057869444
0.0022746777089825993
0.002841861885367435
0.003472675344816156
0.004159915598208327
0.0048923207032386925
0.005654772838424812
0.006429046825783313
0.007195050999827645
0.00793239864434873
0.008622063494708407
0.009247851849305176
0.009797468861798053
0.010263057444432096
0.010641202783915457
0.010932494769439633
0.01114079617252114
0.01127237954708294
0.011335073282768365
0.011337519550471981
0.011288602926339202
0.011197072435966023
0.01107135335139451
0.010919531058982744
0.010749484174855854
0.010569146331185716
0.010386881755544643
0.01021196748066988
0.010055174961778105
0.009929461506136368
0.009850335910000283
0.009834155235744765
0.009852543568046756
0.0003819565231473031
0.0006218372650234208
0.0012982119672537793
0.0028714656357267843
0.003549326724182285
0.005092975287210687
0.005926374718049487
0.00760339734941559
0.008396336095178848
0.009777316871425268
0.010333046875931834
0.010787111600036066
0.011137896898835731
0.011388673071998234
0.011546401064179507
0.011620454220510553
0.010663702906727242
0.01042398466436332
0.009529986522762046
0.009379491907977102
0.00926422852172545
1.8596648792725008e-06
1.7292302303969424e-05
8.034230957824528e-05
0.00020201964948864503
0.0009255670691504336
0.001744782639263047
0.0022689064957915083
0.004294359976917093
0.006771614263425795
0.009127283635307681
0.01162144822275401
0.011560298036763481
0.01144755294387176
0.011293009146980924
0.011105569788813866
0.010893309528811727
0.010181623733739298
0.00994490671975156
0.009723643848777889
0.009289651136390102
8.553055886581212e-06
1.665488243057553e-05
6.611527541072304e-05
0.00017565821673943237
0.0003446779986546455
0.0005752271484318189
0.0008720955407772482
0.0012416595221568696
0.0016904813315073456
0.0022237721566774225
0.002843753316667665
0.0035480663892852263
0.004328474138045669
0.005170159619942167
0.006051913067075578
0.006947366351537776
0.007827203858418064
0.008662010061105322
0.009425216114247945
0.010095568187703493
0.01065868372919351
0.011107520262159594
0.011441851520458709
0.01166703358726471
0.011792416039852068
0.0118297217633101
0.011791629837712795
0.011690689222473703
0.011538600490848611
0.01134584088127361
0.01112157612475885
0.010873795337972784
0.010609612665045967
0.01033569559040364
0.010058798848515424
0.00978639918914402
0.009527449233719818
0.0092932494985151
0.009098493736491388
0.008961272198758868
0.008908697392251785
1.7890639073639077e-05
1.8494695287249368e-05
5.5702734090671046e-05
0.00015394962253719252
0.00031264989206436944
0.0005342031027548625
0.000824368423439949
0.0011909283921018204
0.001642131695809455
0.0021849311088993043
0.002823050193147639
0.003555030176702316
0.004372554872892373
0.00525945637548216
0.006191808676627306
0.007139362778916621
0.008068266462093316
0.008944632380270804
0.009738228278752403
0.01042550621320495
0.01099139850288568
0.01142968385625163
0.011742101770931719
0.011936634247535714
0.012025440440598681
0.012022857082038565
0.01194373615926598
0.011802243409884394
0.011611126336885389
0.011381390946482712
0.01112229798029214
0.010841590395887342
0.01054588129131742
0.010241155265630951
0.009933359804880627
0.009629088148673085
0.00933635257799763
0.009065538833289439
0.008830170865577178