# vtk DataFile Version 2.0
time_10.vtk
ASCII
DATASET UNSTRUCTURED_GRID
POINTS   4141  float 
5.946477061315987e-05         -1.8630342997710927e-17       0.0                           
0.2500000000000016            5.668375863583931e-05         0.0                           
0.5000550780413523            -2.384728325953557e-17        0.0                           
0.75                          5.137527465123195e-05         0.0                           
1.000049258049451             2.095141960598037e-18         0.0                           
1.25                          4.4453780861156195e-05        0.0                           
1.5000417567778883            -1.1609229763023604e-16       0.0                           
1.75                          3.57618341845096e-05          0.0                           
2.0000324649098093            1.6805080035284489e-18        0.0                           
2.25                          2.5288430247072798e-05        0.0                           
2.5000214211447465            1.1653342007473783e-17        0.0                           
2.75                          1.3178711934027239e-05        0.0                           
3.0000088403109615            2.882684603345833e-17         0.0                           
3.25                          -8.581459191025821e-17        0.0                           
3.499994773863567             -9.06409082546061e-18         0.0                           
3.7499999999999987            -1.5673168301586684e-05       0.0                           
3.999978996990399             -1.3187972491929545e-16       0.0                           
4.25                          -3.192764718365069e-05        0.0                           
4.499962481167543             -6.04575641292603e-17         0.0                           
4.75                          -4.894473059353639e-05        0.0                           
4.999945224078913             1.4391594632839524e-17        0.0                           
5.25                          -6.667587519235306e-05        0.0                           
5.499927250235509             6.94487178436117e-17          0.0                           
5.75                          -8.517087109543748e-05        0.0                           
5.999908466586146             -4.582756629057096e-17        0.0                           
6.25                          -0.00010461300435503688       0.0                           
6.499888645298759             9.808949872888225e-16         0.0                           
6.75                          5.926246650384094e-05         0.0                           
7.000057941601562             3.872866761430881e-06         0.0                           
7.250004243316917             5.4882006471859866e-05        0.0                           
7.5000531174670515            5.04339596099825e-06          0.0                           
7.750005468989236             4.906439109026301e-05         0.0                           
8.00004675878313              6.359538331101718e-06         0.0                           
8.250006819407767             4.155984461005334e-05         0.0                           
8.500038660122664             7.755304157060728e-06         0.0                           
8.750008226178755             3.225784968422776e-05         0.0                           
9.000028759714649             9.161450685018433e-06         0.0                           
9.250009621206267             2.1193315790303228e-05        0.0                           
9.500017139447841             1.0513865363281567e-05        0.0                           
9.75001094214809              8.532831427882002e-06         0.0                           
10.000003979166548            1.1752191066497342e-05        0.0                           
1.2232469311706973e-05        0.2999943252752337            0.0                           
0.24998924407363476           0.3000130610802263            0.0                           
0.5000134150220453            0.2999787119375382            0.0                           
0.7499732962392486            0.3000141027965472            0.0                           
1.0000144370948878            0.29996219674908553           0.0                           
1.2499565215397332            0.30001509151012645           0.0                           
1.500015415030507             0.29994493369850045           0.0                           
1.7499390224593963            0.30001606529263525           0.0                           
2.0000163968052482            0.2999269570114037            0.0                           
2.2499207943845683            0.3000170851826966            0.0                           
2.5000174471320573            0.2999081752564346            0.0                           
2.7499017000516726            0.30001821876651125           0.0                           
3.000018632920347             0.29988835999603203           0.0                           
3.2498814677950976            0.300019527559196             0.0                           
3.5000070348853907            0.30005734151962854           0.0                           
3.7500558922896867            0.3000084748315749            0.0                           
4.000009257919891             0.3000525332374729            0.0                           
4.2500505996371984            0.30001093135701956           0.0                           
4.500011812556873             0.3000461766086723            0.0                           
4.7500436733029066            0.3000136388015704            0.0                           
5.00001457339073              0.300038062055246             0.0                           
5.250034951148985             0.30001645952576644           0.0                           
5.5000174010975345            0.3000281243646088            0.0                           
5.750024415414385             0.30001925824091547           0.0                           
6.000020165725173             0.3000164321785607            0.0                           
6.250012168675991             0.3000219237867506            0.0                           
6.500022774724895             0.3000031060382814            0.0                           
6.749998337523935             0.30002448055898734           0.0                           
7.000025308239552             0.2999883698344908            0.0                           
7.249983180844957             0.3000268190475473            0.0                           
7.500027524073444             0.2999724555428364            0.0                           
7.749966944527958             0.30002887997230865           0.0                           
8.00002953823974              0.29995566317630035           0.0                           
8.2499499017762               0.30003083402665315           0.0                           
8.500031480081752             0.2999381474135392            0.0                           
8.749932153330684             0.30003279224129026           0.0                           
9.000033468461297             0.2999199152741401            0.0                           
9.249913659446076             0.3000348869465532            0.0                           
9.500035639298718             0.2999008312405172            0.0                           
9.749894236654825             0.30003725366515654           0.0                           
10.000038123917935            0.2998806199331823            0.0                           
5.764222650715186e-05         0.6000105177676003            0.0                           
0.2500115664974339            0.6000549021411707            0.0                           
0.500053312677018             0.6000138608251371            0.0                           
0.7500150956411459            0.6000496297081751            0.0                           
1.0000475148171108            0.6000177072411547            0.0                           
1.2500190690551651            0.6000426979786453            0.0                           
1.5000399854721083            0.6000218654134835            0.0                           
1.75002328415555              0.6000339397470594            0.0                           
2.000030606817489             0.6000261247465832            0.0                           
2.250027532554551             0.6000233332517633            0.0                           
2.500019401280558             0.600030292999306             0.0                           
2.750031636764692             0.6000109733573745            0.0                           
3.0000064890092277            0.6000342461604954            0.0                           
3.250035515740839             0.5999970350561536            0.0                           
3.4999920930157766            0.6000379647280484            0.0                           
3.750039122124797             0.5999818158249463            0.0                           
3.99997649583106              0.6000412970787827            0.0                           
4.250042329952411             0.5999655441706555            0.0                           
4.499959931176003             0.6000443228506392            0.0                           
4.7500452953427               0.5999484624737341            0.0                           
4.9999426137390985            0.6000472253814089            0.0                           
5.250048197284957             0.5999306910847738            0.0                           
5.499924612967775             0.600050193064251             0.0                           
5.750051232691369             0.5999121983614676            0.0                           
5.999905846279486             0.6000534343837276            0.0                           
6.2500546112498               0.5998928000489738            0.0                           
[...]
POINT_DATA  4141
SCALARS Con float 1
LOOKUP_TABLE default
0.00039696719728403966
0.00044272597279840855
0.0005312238911739715
0.0006357901243907496
0.0007553044033182709
0.0008903278827388136
0.0010413125805390593
0.001208450653271469
0.0013916471425447297
0.0015905114796295186
0.0018043597987345166
0.002032226572283979
0.0022728833893234683
0.0025248609440042496
0.0027864674642034837
0.003055792078884964
0.0033306831834096573
0.0036087332177495352
0.0038878530302277007
0.004174096870723175
0.004515801706148986
0.004859710375283783
0.00515478528762771
0.005435556442169797
0.005718942701409566
0.006003736660978758
0.006289990038561361
0.006578155845138302
0.0068692593216995845
0.0071647798059351125
0.007466588231485902
0.0077768964311748495
0.008098215928343077
0.008433320467915846
0.008785209493016321
0.009157070419368031
0.00955223448613029
0.009974068764980512
0.010425017428823216
0.010893228136370954
0.011164183110811505
0.00040276490302487233
0.0004496309878745877
0.000539942343600077
0.0006465168163054168
0.0007682353843112712
0.0009056225362907342
0.0010590916499326575
0.0012287932827558417
0.0014145902551787241
0.0016160514961921372
0.0018324573602992514
0.0020628155597009574
0.002305887081135889
0.002560221825077681
0.0028242059624723234
0.0030961339877907095
0.0033743476428884068
0.003657686217619975
0.003946629376368617
0.00425065778842851
0.004562588726815361
0.004871666064228047
0.0051718418646585305
0.005465618821334809
0.005754233916163331
0.006041674688262588
0.006329196658354836
0.006618016018667678
0.006909514286639334
0.007205377894065221
0.007507611662922173
0.007818526367409312
0.008140714275980272
0.008477019728121973
0.008830506526256299
0.00920442197086479
0.009602153126924761
0.010027119744105719
0.010481797519547765
0.010954517363474196
0.011228402896846
0.00039843145299500087
0.00044521214957261683
0.0005356074655960805
0.0006425189897137382
0.0007648074111030429
0.0009029914555222913
0.0010574737666765891
0.001228393060410951
0.0014156007685756332
0.0016186573826728213
0.00183684169144854
0.0020691735675704695
0.002314452451973084
0.0025713166731110063
0.002838336613264661
0.003114169620725671
0.0033978596887266547
0.003689242545035642
0.003990225678400845
0.0042916033486774165
0.004575644584182768
0.0048608718161746054
0.005163452781062235
0.005463983600443754
0.005758858924935861
0.006049638896444604
0.006338553858261038
0.006627397794173856
0.0069179571266860945
0.0072121656965564
0.0075121913359649664
0.007820462812429367
0.008139669162890434
0.0084727439279592
0.008822840661908162
0.009193301958198835
0.009587618730316372
0.010009322996217802
0.010461019781562704
0.01093106904908413
0.011203465820085
0.0003909105907413548
0.00043766078397892955
0.0005282225036604791
0.0006356831453820835
0.0007589094447699177
0.0008984058052520542
0.001054556110432662
0.0012274771968219717
0.0014169977039439794
0.0016226567630689313
0.0018437163862260004
0.0020791886376849266
0.002327879862524184
0.002588455538495875
0.0028595291126444953
0.0031397747059669395
0.003427986243034756
0.0037229842423665287
0.004020735919528004
0.004314788777106377
0.0046052149780366775
0.004894727136103529
0.005186784960129127
0.005482915976158657
0.005777283257312847
0.0060683455526207505
0.006356842772958506
0.00664428974211448
0.006932479988151879
0.007223447504470878
0.007519475918505372
0.007823110929803635
0.00813715992122001
0.008464680615891399
0.008808961115679512
0.009173492591756574
0.009561930915893099
0.009977990714532457
0.010424474012781574
0.01089004818027351
0.011160250545184115
0.0003803026386389287
0.0004270082796897673
0.0005178211055961551
0.0006260682757391903
0.0007506219255231888
0.0008919662780091741
0.0010504564925950652
0.001226175334793647
0.0014189135095191284
0.0016281694068104927
0.0018531619055872966
0.0020928565137457314
0.002346004828134582
0.0026111946018452722
0.002886900597644323
0.003171499433170765
0.003463183930147333
0.003759406180766249
0.004056884650007596
0.004352998141616778
0.004646337414609011
0.004938132363800463
0.0052300462205786095
0.005521801617185394
0.005812579795801284
0.006100884171578826
0.006386603462790176
0.006670666894806418
0.006954630527603544
0.00724046920542701
0.007530502101496982
0.007827360990151182
0.008133971807339697
0.00845353687196464
0.008789513852099548
0.009145589360845537
0.009525641920515228
0.009933637300877894
0.010372666953327182
0.010831850858352471
0.011098914636540462
0.0003665414696751858
0.0004132032005836871
0.0005043601663259654
0.0006136410861855297
0.0007399214588473675
0.0008836569904934949
0.0010451634638407351
0.0012244762563773709
0.0014213313316153093
0.0016351643924424598
0.0018651214682729805
0.0021100802306925973
0.0023686798789970417
0.002639353659437655
0.0029203498896154144
0.0032097196496496303
0.0035052214137458594
0.003804316946025191
0.004104429081911413
0.004403362407101725
0.004700027175578166
0.004994245851599916
0.005286252370329367
0.005576129122042761
0.0058633658301598095
0.006147565995481839
0.006428699710632471
0.0067074739508228105
0.006985252163962121
0.007263923088588345
0.007545808392283659
0.007833608652521952
0.00813036890493588
0.008439452541442233
0.008764517002883465
0.009109487136850995
0.00947851954364029
0.009875900964813384
0.010305102154286792
0.010755829536883426
0.011018711590580925
0.0003495783376691603
0.00039620036960094515
0.00048780427854878445
0.0005983764741450923
0.0007267926317693195
0.0008734709661768278
0.0010386770838144677
0.001222386087680233
0.0014242632410139213
0.001643661182804855
0.0018796269035520024
0.0021309174667198004
0.002396022179556081
0.0026731862821195184
0.0029604293331252757
0.0032555513582990035
0.003556159299831946
0.003859760580157753
0.004163960186652786
0.004466774664270125
0.004766811891609925
0.005063309723721951
0.005355901369749921
0.005644325631061323
0.005928374760700545
0.006207939049939713
0.0064832761870176805
0.006755142432535449
0.007024864700707453
0.0072943076955334805
0.0075658185410935564
0.007842178141557328
0.008126564089699383
0.008422521545070312
0.008733937875093299
0.009065017040740026
0.009420246665748578
0.009804301228966231
0.010221112448861813
0.010661111602050957
0.01091865880259755
0.0003293961487187934
0.0003759844001317645
0.0004681421901354189
0.0005802692680294728
0.0007112365300559775
0.0008614154006249762
0.0010310114382526359
0.0012199285606041017
0.0014277483561599574
0.001653724344828292
0.001896784851241431
0.0021555441335520727
0.0024283208249271304
0.0027131621110665595
0.0030078728745962036
0.003310057196300159
0.00361718670559743
0.003926714676195491
0.0042362423732708165
0.004543689354220705
0.004847426279890082
0.005146290421297023
0.005439513095292198
0.005726621739655039
0.0060073783474728255
0.006281827786276038
0.006550378397846787
0.006813904566566116
0.007073796127821352
0.0073319686663115575
0.007590841795903109
0.007853308035488697
0.008122703022652123
0.008402779956133314
0.008697687353099644
0.009011947403508889
0.009350428175632693
0.009718253630556463
0.010119896078291
0.010546663740765875
0.010797588560837098
0.00030603587619496106
0.00035259171139658674
0.00044540439698837874
0.0005593462757503338
0.0006932771753435211
0.0008475126251716813
0.0010221902171807017
0.001217135141410077
0.0014318368350839715
0.0016654391260919328
0.0019167385390900335
0.0021841916580793066
0.0024659325063266227
0.0027598010068238623
0.0030633852435719673
0.0033740825238597677
0.003689186133038102
0.004006001121021017
0.004321979011872561
0.004634850996986449
0.004942724099617134
0.005244125143238827
0.0055379932533007005
0.005823650123659436
0.006100786599810082
0.00636947642084916
0.006630222181129215
0.006884002734115124
0.00713231013782484
0.007377162149499754
0.007621096367028619
0.007867153393987768
0.00811885734611034
0.008380197947517478
0.008655615234914257
0.008949985338462663
0.009268601089801739
0.009617092545921802
0.010000549639376945
0.010411317309346116
0.010654173697509135
0.0002796263084028189
0.0003261367601474701
0.0004196824131231192
0.0005356782635909757
0.0006729659655684382
0.0008317969536254384
0.001012236044175582
0.0012140268925492884
0.00143656397041246
0.0016788767388496448
0.001939622103565301
0.0022170875869070117
0.00250920790467621
0.0028135976516936935
0.00312760292516508
0.003448374653027548
0.0037729647544629077
0.004098441704674351
0.0044220158400454495
0.004741157591822924
0.005053692490605222
0.005357861619166367
0.005652349944953756
0.0059362952696402115
0.006209293110990349
0.006471410097554046
0.006723205081672906
0.006965753497307793
0.0072006652446704855
0.007430092393289599
0.007656726323155595
0.007883788778629925
0.00811502117661309
0.008354675859694398
0.008607510480719416
0.008878784592022973
0.009174252555281317
0.009500099318000289
0.009862103069360664
0.010253810870831858
0.010486973681921537
0.00025041789878097853
0.0002968411664488818
0.0003911492354549195
0.0005093911012523009
0.0006503832349274976
0.0008143066748136644
0.0010011532395502224
0.0012105885841859991
0.0014419163837959966
0.0016940534949697902
0.0019655139547872786
0.0022544059816392435
0.0025584462266662112
0.0028749949175851386
0.0032011144494902737
0.0035336522501674262
0.0038693458706921566
0.004204944434691376
0.004537336309549891
0.0048636704379113604
0.005181459182804649
0.005488655402775012
0.005783703035393014
0.006065566682980922
0.006333748712520581
0.00658830059495504
0.006829832414911665
0.0070595198395182225
0.007279107485792048
0.007490907394687079
0.007697793879892663
0.007903197297706497
0.008111099985567211
0.008326036776654557
0.00855310109472433
0.008797955636127803
0.009066841847844192
0.009366536546596086
0.009703566139515729
0.010072847329923992
0.010294497189675516
0.00021881971171402594
0.00026506481494700037
0.0003600798123887527
0.0004806748636008613
0.000625635774421058
0.0007950702002533387
0.0009889032873173947
0.0012067347208834758
0.001447790445671556
0.0017108841500648312
0.001994388584420839
0.0022962228781071973
0.002613861781883927
0.0029443714599775342
0.003284474263135246
0.003630642034535601
0.003979213959409013
0.004326531266032113
0.004669078067385257
0.005003616288121582
0.0053273037522351165
0.005637787995680027
0.005933273195573705
0.006212562272306212
0.006475078936301577
0.006720875456496992
0.006950630902885616
0.0071656432955223845
0.007367818260671437
0.0075596564829894216
0.007744242624818961
0.007925238777054417
0.008106885138204348
0.008294009930011144
0.008492049093275457
0.008707074501591689
0.008945824774627652
0.009215689070023035
0.00952398617016837
0.009867167437631084
0.010075283818907276
0.0001854370816783776
0.0002313367917124798
0.0003268695560752821
0.0004497891903188722
0.0005988488613805906
0.0007740851189922453
0.0009753719549745416
0.0012022665474305406
0.0014539418735611679
0.0017291278124980805
0.002026063584843825
0.00234247021759652
0.002675551186451147
0.00302202723009652
0.00337820809355251
0.003740099840977348
0.0041035419939519525
0.004464364701530483
0.004818553251868592
0.005162406373536099
0.005492675997823635
0.005806679646787594
0.006102380997831406
0.006378438848502425
0.006634228186026093
0.006869839238297933
0.007086061137991649
0.007284356535203407
0.007466833086051529
0.007636216920514317
0.007795832789088846
0.007949594753888007
0.008102010535786743
0.008258201349306523
0.008423937528420317
0.008605688257807739
0.008810679268164673
0.009046910880693171
0.009322516985367915
0.009635640056807128
0.009828005723135356
0.0001511062142958395
0.00019638252921240796
0.00029204804943637464
0.0004170627057063116
0.0005701512388836257
0.0007512891596039151
0.0009603273216563282
0.0011968191979739842
0.0014599252895317902
0.0017483244977412615
0.002060138899542794
0.002392884092520606
0.0027434564776559313
0.0031081655878105914
0.003482815000723613
0.0038628297341629174
0.0042434222067174385
0.0046197837664158775
0.0049872854440806596
0.005341670614708627
0.005679224051007697
0.005996905783758001
0.006292443610045972
0.006564383638877523
0.006812103116699172
0.007035793100563664
0.007236420366516967
0.007415678327908222
0.007575936095488976
0.007720193784757747
0.007852050555999648
0.00797569062076543
0.00809589065484991
0.00821805066007687
0.008348248511785745
0.008493316272871396
0.008660931292219978
0.00885967712084276
0.009098498167239859
0.009377368797100844
0.009551589389150093
0.00011691893035078101
0.0001611415233046567
0.0002562838091212192
0.00038288402912393493
0.0005396521759862455
0.0007265231841356686
0.0009433692459315326
0.001189799408668096
0.0014650236920968104
0.0017677217306941544
0.0020959272854701835
0.0024469463475969536
0.0028173245695590765
0.0032028753965311343
0.003598773837862651
0.003999713022013204
0.0044001126195315635
0.004794361118440523
0.005177069441921775
0.0055433122881892866
0.005888836103336194
0.006210218212010865
0.006504969072881242
0.006771577382491789
0.00700950442828207
0.007219138964985039
0.007401726246703202
0.007559285545055785
0.007694529071617963
0.00781079346311933
0.007911992223503016
0.008002595360554999
0.008087639956720707
0.008172773776932532
0.008264332268591492
0.008369447382301436
0.008496181445683388
0.008653640305716385
0.008851543308976037
0.009091813473048448
0.009245355858312442
8.422783361598765e-05
0.00012676739422002128
0.00022037498653885342
0.00034768280386034107
0.0005074116114751775
0.000699488960432748
0.0009238733480849301
0.0011803162961491478
0.0014681698382069215
0.001786192748316528
0.002132377370799884
0.0025038214204381923
0.0028966664167573448
0.0033061190842039313
0.003726563230519509
0.004151758705622325
0.0045751119655453795
0.004989992603973181
0.0053900633605656455
0.005769589777979654
0.006123699822519749
0.006448572395656756
0.0067415450253802125
0.007001142309892007
0.007227036366460403
0.007419956873668236
0.007581571229354004
0.007714355096495051
0.007821471136197163
0.00790667012088343
0.007974224519555703
0.008028901057984655
0.008075975767195246
0.008121292944542838
0.00817136824706896
0.00823353556496236
0.008316133709090762
0.008428693218184352
0.008581634155328291
0.008778922551066659
0.008909178242750839
5.461693281327581e-05
9.459911743275363e-05
0.00018522124141749652
0.0003119008941719391
0.0004734093111989278
0.0006697086417196218
0.0009009349048050686
0.0011671107537741606
0.00146786514091425
0.0018021515008676732
0.0021679939998929926
0.0025622932058698283
0.002980721854668391
0.003417734846191383
0.003866706156345521
0.004320189057996856
0.004770277947755053
0.005209033838565476
0.005628925201359404
0.006023233930429962
0.006386383390492138
0.006714159808624953
0.007003816171595835
0.00725406521722966
0.0074649818041145465
0.007637843031576621
0.007774936934996818
0.007879368443798855
0.007954885937617725
0.00800574562313982
0.008036624416982479
0.008052587057295694
0.008059109251874415
0.008062156522755066
0.008068317705575864
0.008084992605197149
0.008120636291200885
0.00818503731756823
0.008289227391008404
0.008439268533470195
0.008543636281246344
2.9824638825562095e-05
6.609015479716957e-05
0.0001517706140055799
0.000275967791005868
0.00043752585623245286
0.0006364902825379316
0.0008733206183161979
0.0011484946105840786
0.0014621078871812408
0.0018134751982440136
0.0022007648911977155
0.0026207098428712777
0.0030684383837440536
0.003537463532571487
0.004019852964603371
0.004506577594730634
0.004988008197238009
0.005454502651291056
0.005897009460107632
0.006307610762622464
0.006679940767006231
0.007009440570587584
0.007293439508284683
0.007531080548875511
0.007723126526714172
0.00787169345035641
0.007979957059694644
0.008051872358140857
0.00809193558280238
0.008105007468464346
0.008096207277035763
0.008070880185418088
0.00803463623605549
0.007993457148553044
0.0079538669999224
0.007923164712187503
0.00790971717157253
0.007923319499702233
0.007975348351271293
0.008074192436943252
0.008150218195090462
1.1565410414321892e-05
4.2684775949221096e-05
0.00012098817937287251
0.00024029790992962201
0.00039951394022563573
0.0005989020322925658
0.0008394466347410904
0.0011223232873213223
0.0014483543596598956
0.0018174541036020712
0.0022281088604224814
0.0026769482823660153
0.0031584748690342765
0.003665013120341722
0.004186920126920164
0.004713061364095154
0.005231508635665246
0.0057303711540936985
0.006198642036208992
0.006626938451622117
0.007008038759600139
0.007337163274143339
0.007611996225506493
0.007832488488196064
0.008000508058639362
0.00811941298022035
0.00819361559563622
0.008228191057435814
0.008228564685488746
0.00820029545050213
0.008148959834523897
0.008080131843867288
0.007999451273698005
0.007912771144859972
0.007826377386187104
0.007747274910213723
0.00768353923809995
0.0076447018730114715
0.007642076606552493
0.007685862807421126
0.007731211144762627
1.5244942449378822e-06
2.5727893911162793e-05
9.380401897375895e-05
0.00020520043160611288
0.0003590137961797013
0.0005558771233094541
0.0007975304109430196
0.001086162616600596
0.0014236767104759687
0.0018109309077652806
0.0022470009391460056
0.0027285439500508804
0.0032493637855852877
0.0038002817355122774
0.004369390663164708
0.004942713552856757
0.0055052062729090065
0.006041964409357433
0.006539439750641951
0.006986468628469123
0.007374960914965956
0.007700180892610009
0.007960637858366894
0.008157672465176014
0.008294857986979353
0.00837733792407446
0.008411198686897561
0.008402944448060442
0.008359108612789245
0.008286010682695091
0.00818965037911836
0.008075722517090843
0.007949734585046504
0.007817211703311214
0.007683978862081941
0.007556516189416698
0.007442383365209031
0.007350721848995738
0.007292524309827916
0.0072794537437908995
0.0072917826468744664
0.000325028947416279
0.000518496776147724
0.0010549154015849556
0.002276599437437862
0.0027952165696320886
0.003961763063419019
0.004583640814683643
0.005817989147437097
0.006393080221205554
0.0073787692961101705
0.0077679883326479205
0.008081236342322442
0.00831860474610473
0.008483568476345998
0.008582045508537608
0.0086214432883338
0.007881704832273082
0.007707118778647619
0.007059755179483161
0.006950445240696013
0.00686522005656649
0.0
1.6807880665567737e-05
7.451966398225695e-05
0.00017743292961264236
0.0007606203789138333
0.0014046785740381175
0.0018119701962405685
0.0033606653540905703
0.00520868537297384
0.006917621023206405
0.008609821819423345
0.008555245816636343
0.008465349519670222
0.008347103442780793
0.008206754584474894
0.008049905899523271
0.00753128582494354
0.007359939491543658
0.007199918426564035
0.006884446452536643
2.3566472258848624e-06
1.3912580843528906e-05
6.141200080200987e-05
0.00015529476517750937
0.0002949188171514487
0.0004818110010647107
0.000719463551540507
0.0010124019935976788
0.001365080600818301
0.001780695237584436
0.0022599513405027346
0.002799915339194486
0.003393141414234376
0.004027302638259436
0.004685524766210363
0.005347504616144145
0.005991310656281333
0.006595566660423182
0.0071415945570965835
0.007615096234722879
0.008007091970288599
0.008314039176081006
0.0085372514036301
0.008681857305697089
0.008755570627483158
0.008767500034799858
0.00872715220272568
0.008643700416009552
0.008525528293220976
0.008380018150858554
0.008213536327008735
0.00803156695295275
0.00783895389859692
0.007640223940749123
0.007439978407327833
0.007243352095110911
0.00705655476975643
0.006887495592307744
0.006746538642052472
0.0066465464337129125
0.006607784467985419
7.625234962240369e-06
1.3417834506736753e-05
5.158491100949698e-05
0.00013696363370713607
0.0002689748576707888
0.0004494627815591519
0.0006826989102300469
0.0009742966169565751
0.0013299749089287808
0.0017541855214390472
0.0022486468193086183
0.002810919294216464
0.003433262942977712
0.004102081813094758
0.004798239651445298
0.005498387550412898
0.006177192866206578
0.006810078879660312
0.007375900334575055
0.00785898736460238
0.008250191107999233
0.008546862522913392
0.008751962407009501
0.00887264955830601
0.008918709742410696
0.008901110903050843
0.008830854733587941
0.008718186623518778
0.008572148332613405
0.008400415917230765
0.008209352065637224
0.008004208291383952
0.007789427928384729
0.00756901931523175