# vtk DataFile Version 2.0
time_10.vtk
ASCII
DATASET UNSTRUCTURED_GRID
POINTS   4141  float 
1.982475201962211e-05         1.7508574597281705e-17        0.0                           
0.2499999999999987            1.8747938786348618e-05        0.0                           
0.5000181501274964            1.2754338284401682e-15        0.0                           
0.75                          1.681641832517326e-05         0.0                           
1.000016074113097             -1.2938878121714766e-17       0.0                           
1.25                          1.4426440942984906e-05        0.0                           
1.500013517872606             -1.589090594599292e-16        0.0                           
1.75                          1.1527551454139092e-05        0.0                           
2.000010446009141             -2.9671948720674506e-17       0.0                           
2.25                          8.11480103009454e-06          0.0                           
2.500006868617275             -1.613349545958874e-17        0.0                           
2.75                          4.228573470376689e-06         0.0                           
3.000002843570471             2.8258029216986157e-18        0.0                           
3.25                          1.3003747281527265e-16        0.0                           
3.499998407955805             1.0006542182918453e-17        0.0                           
3.75                          -4.807516850100752e-06        0.0                           
3.9999935506770408            7.579743946523176e-16         0.0                           
4.25                          -9.80607635599225e-06         0.0                           
4.499988481249704             1.6191817304694255e-17        0.0                           
4.75                          -1.5007108452632292e-05       0.0                           
4.999983218543726             -3.0877940427156624e-15       0.0                           
5.25                          -2.0390380510119774e-05       0.0                           
5.499977773620526             -7.741469446161002e-17        0.0                           
5.75                          -2.5968909440091322e-05       0.0                           
5.9999721200056415            1.2619485124095968e-16        0.0                           
6.25                          -3.1796942318083323e-05       0.0                           
6.49996618977137              1.6869808758159696e-15        0.0                           
6.75                          1.977043771428698e-05         0.0                           
7.000019251167979             1.501063657691134e-06         0.0                           
7.250001602081289             1.8097791825260657e-05        0.0                           
7.500017455525568             1.8228457961172114e-06        0.0                           
7.750001941339678             1.6022547447448254e-05        0.0                           
8.000015226403194             2.1908699912320224e-06        0.0                           
8.25000232030364              1.3465345028190321e-05        0.0                           
8.500012498358856             2.5843955005453473e-06        0.0                           
8.750002717432377             1.0390555084276916e-05        0.0                           
9.000009251016156             2.9816454413508876e-06        0.0                           
9.250003111404824             6.80769561711265e-06          0.0                           
9.500005508125055             3.363000549215342e-06         0.0                           
9.750003483609724             2.765858170270622e-06         0.0                           
10.000001325164487            3.7118038281958345e-06        0.0                           
3.837687727407093e-06         0.299998301886364             0.0                           
0.24999672522034036           0.30000406016600134           0.0                           
0.5000041579934753            0.299993473391852             0.0                           
0.749991806854055             0.30000434605858656           0.0                           
1.000004436677274             0.29998840266380844           0.0                           
1.2499866679466742            0.30000461300457926           0.0                           
1.5000046998198922            0.29998313792746045           0.0                           
1.749981343204478             0.30000487406020915           0.0                           
2.000004962952269             0.2999776921133125            0.0                           
2.2499758332985245            0.3000051481377639            0.0                           
2.500005245991662             0.2999720390363801            0.0                           
2.7499700979985793            0.300005455990412             0.0                           
3.0000055695232746            0.2999661105622527            0.0                           
3.249964055901245             0.30000581662590575           0.0                           
3.5000028095859714            0.30001909038027386           0.0                           
3.750018536280414             0.3000032004257882            0.0                           
4.000003415790904             0.3000172997575736            0.0                           
4.250016609801732             0.30000388054351335           0.0                           
4.500004127068539             0.30001507136099237           0.0                           
4.75001421846146              0.300004640502023             0.0                           
5.000004904104537             0.3000123385924853            0.0                           
5.2500113106680715            0.3000054368702982            0.0                           
5.500005702893139             0.3000090805678403            0.0                           
5.750007880576751             0.30000622703087454           0.0                           
6.0000064826397               0.30000531907279765           0.0                           
6.25000396142446              0.3000069761781211            0.0                           
6.500007213574006             0.300001099238941             0.0                           
6.749999602796085             0.30000767995427957           0.0                           
7.000007903751638             0.2999964932996758            0.0                           
7.249994884531624             0.30000831544760576           0.0                           
7.500008507780836             0.2999915761361756            0.0                           
7.749989883113716             0.3000088754633967            0.0                           
8.000009052924446             0.2999864301507658            0.0                           
8.249984672921684             0.30000940080358857           0.0                           
8.500009573846222             0.2999811001008415            0.0                           
8.749979284238815             0.3000099253937321            0.0                           
9.000010106985792             0.2999755889255326            0.0                           
9.249973705961901             0.30001048968371097           0.0                           
9.500010693887859             0.29996985660369097           0.0                           
9.749967883551925             0.3000111352562964            0.0                           
10.000011374982739            0.29996382067946276           0.0                           
1.9335389888724984e-05        0.6000042035122198            0.0                           
0.2500044867606953            0.6000182714748957            0.0                           
0.5000176788079878            0.600005115428715             0.0                           
0.7500054575286774            0.6000163514159143            0.0                           
1.000015609907449             0.600006186851645             0.0                           
1.250006569357374             0.6000139585074902            0.0                           
1.5000130452826788            0.6000073576102721            0.0                           
1.7500077583418998            0.6000110398975589            0.0                           
2.000009947891486             0.6000085609554392            0.0                           
2.250008958388302             0.6000075894667597            0.0                           
2.5000063260044403            0.6000097358736217            0.0                           
2.7500101129499805            0.6000036400359485            0.0                           
3.000002221867673             0.6000108402916323            0.0                           
3.2500111906461573            0.5999992515110394            0.0                           
3.4999977069584673            0.6000118603343486            0.0                           
3.7500121756370923            0.5999945121850837            0.0                           
3.9999928671329545            0.6000127672366925            0.0                           
4.250013047142233             0.5999894963779547            0.0                           
4.499987775849723             0.6000135845133165            0.0                           
4.750013845588492             0.599984273489179             0.0                           
4.99998249368038              0.6000143624135782            0.0                           
5.250014622509868             0.5999788778386368            0.0                           
5.499977040554643             0.600015157659714             0.0                           
5.750015437503819             0.5999732998706079            0.0                           
5.999971391814704             0.6000160336358473            0.0                           
6.250016354476599             0.5999674845578475            0.0                           
[...]
POINT_DATA  4141
SCALARS Con float 1
LOOKUP_TABLE default
6.335637401929569e-05
6.796842306125759e-05
7.709732919428468e-05
8.77494922835517e-05
9.976530363307228e-05
0.00011317554799913207
0.00012800337337325044
0.00014424839800173238
0.00016188432552204768
0.0001808584795113266
0.0002010923995577087
0.00022248339080930895
0.00024490686975382043
0.00026821923119418797
0.0002922607787794298
0.0003168579046825415
0.00034182417124117154
0.0003669588049229251
0.00039209450937129173
0.0004174555527314914
0.00044583457728857164
0.00047426821612609794
0.0004998677823254903
0.0005242056095453374
0.0005485123926731734
0.0005727159646305577
0.0005968515232228329
0.0006209849055101476
0.0006452270282591933
0.0006697256817335351
0.0006946612141580753
0.0007202428112317214
0.0007467053446417913
0.0007743064613722161
0.000803323715073476
0.0008340515703159834
0.0008667977816845382
0.0009018738124920705
0.0009395090574190856
0.0009786880236599778
0.0010012494457414208
6.430941134117561e-05
6.902816438098318e-05
7.83408829689054e-05
8.91909059485647e-05
0.00010141904027088607
0.0001150522881862536
0.00013011002531221206
0.00014658788197648753
0.0001644555493264541
0.0001836564863956991
0.00020410873057117427
0.00022570673071134822
0.00024832413004063594
0.0002718174259376128
0.00029603051903267374
0.0003208008391478353
0.00034596877970099983
0.00037140802865007075
0.00039707506763446014
0.00042359628880094343
0.0004503946209685925
0.00047673169684787756
0.0005022935706234761
0.000527415596776492
0.000551999579075287
0.0005763290269202209
0.0006005073783686787
0.0006246494063864103
0.0006488891323379503
0.0006733884470778813
0.0006983372522382473
0.000723952084607227
0.0007504739950235084
0.000778166118604046
0.0008073110508616968
0.0008382079628697894
0.0008711689930601631
0.0009065097651150294
0.0009444622375688503
0.000984027781849333
0.0010068382112155194
6.376928141176846e-05
6.848644457990388e-05
7.781954982114174e-05
8.871736572292636e-05
0.00010101698493972457
0.00011474398075379874
0.00012991576845620539
0.00014652586825674078
0.0001645418124420598
0.00018390502276508704
0.00020453187504220263
0.0002263159574100028
0.00024913161882925925
0.0002728390512238847
0.000297291623052278
0.00032234695426377005
0.00034788742807307575
0.00037384394221012557
0.0004003040659285546
0.0004265728656888266
0.00045169586517828953
0.0004767484252421467
0.0005025298088938959
0.0005279463567111621
0.0005528528733061439
0.000577326021547366
0.0006015282411159625
0.0006256058045857033
0.0006497165386159803
0.0006740372215462324
0.0006987679868601725
0.0007241331560341049
0.0007503804958445358
0.0007777796173735072
0.0008066198517149829
0.0008372077213698085
0.0008698635636376629
0.0009049121397415968
0.0009425967465699731
0.0009819238723221908
0.0010046053912018734
6.283362374928174e-05
6.755847949129903e-05
7.692984824960152e-05
8.790693308439453e-05
0.00010032562657815907
0.00011420859197889002
0.00012956995184313307
0.00014639957835796424
0.00016466117572905918
0.00018429233093084763
0.00020520579943721206
0.000227292059019928
0.00025042323500510446
0.0002744585609943769
0.00029925149695774703
0.0003246585659034653
0.0003505445631642487
0.0003767829893615004
0.0004030602416266293
0.0004289785895253649
0.00045450086577569066
0.0004797556527934332
0.000504926500103935
0.0005300789332831811
0.0005548894133896807
0.0005793007931782628
0.0006033839199516373
0.0006272704461098808
0.000651119260086061
0.0006751140719443588
0.0006994630729075525
0.0007243989590064778
0.0007501782234420977
0.0007770798646616078
0.0008054036093240005
0.0008354676853174764
0.0008676057322837409
0.0009021577072390252
0.0009393840194714514
0.0009783192943842833
0.0010008098690852802
6.15107787856173e-05
6.624692990469718e-05
7.567473697623069e-05
8.676591264819481e-05
9.9354174956521e-05
0.0001134581811516698
0.00012908725259974676
0.00014622592441025103
0.00016483215632623563
0.0001848374936806419
0.00020614842042330714
0.0002286489029304444
0.0002522040859633195
0.0002766649360240201
0.0003018732047950254
0.00032766434193347847
0.0003538650811491663
0.0003802590303569949
0.000406601001065912
0.0004326862287281923
0.00045839892042752716
0.0004837822281648364
0.0005089099229516287
0.0005337586861695123
0.0005582873754007377
0.000582432116609856
0.000606222823118127
0.000629758803099277
0.000653187305110978
0.0006766905349739792
0.0007004808331227103
0.0007247981844451326
0.0007499085769044262
0.0007761024149471229
0.0008036928261917259
0.000833013632024961
0.0008644165330879921
0.0008982623056347414
0.0009348360349333912
0.0009732110220271388
0.0009954254070648197
5.9788889593956575e-05
6.454177980105339e-05
7.404623883371365e-05
8.528854343341692e-05
9.809925831764139e-05
0.00011249165033998674
0.00012846868138557174
0.00014600777400012894
0.000165059113919863
0.00018554582593385306
0.00020736525279791657
0.0002303912745752539
0.0002544775162085328
0.00027946104914508487
0.0003051656750494628
0.00033140350515386646
0.00035797123883761684
0.00038465394262535515
0.00041124016756134213
0.00043755200339344364
0.0004634850551282103
0.0004889995347417132
0.0005140906057140045
0.0005387560052599512
0.0005629736043594714
0.0005867425186798923
0.00061009691592732
0.0006331262195860859
0.0006559690098242326
0.0006788051868280965
0.0007018500194324563
0.0007253504841331171
0.0007495827951493034
0.0007748504898845497
0.0008014827039920152
0.0008298323413046447
0.0008602735616311714
0.0008931934102593816
0.0009289083891102854
0.0009665422428859961
0.0009883897128841578
5.76559698845466e-05
6.243214110560661e-05
7.20359139671731e-05
8.346908200537784e-05
9.655788464671094e-05
0.00011130874985551141
0.00012771668512143741
0.0001457502401613771
0.00016534983769477595
0.00018642788318001355
0.00020886989303440314
0.0002325365594379166
0.0002572666026856366
0.000282880077775618
0.0003091816696727959
0.00033596342378116554
0.0003630090299286531
0.00039010146238643547
0.000417037439271199
0.00044364705666315315
0.0004698064769684047
0.0004954405256178252
0.0005205096627136373
0.000544993737787451
0.0005688895072396363
0.0005922138414101394
0.0006150190071931527
0.0006373992466178705
0.0006594939301384512
0.0006814847064246682
0.0007035916809860144
0.0007260700819890351
0.000749207736850736
0.0007733231443897697
0.0007987638951855474
0.0008259051461275001
0.0008551475558668027
0.0008869095053258241
0.0009215454728321798
0.0009582418048029356
0.0009796222496075515
5.510133829996995e-05
5.9908461248093725e-05
6.96365407171126e-05
8.130299559767551e-05
9.47283451672643e-05
0.0001099106656783929
0.00012683546202357337
0.00014546076932994839
0.0001657154321735802
0.00018749908243116532
0.00021068307717968048
0.0002351123822811325
0.0002606083228785638
0.0002869720751497995
0.00031398876447229804
0.0003414325368267169
0.0003690732037234595
0.00039668563683235554
0.0004240617953489579
0.0004510229370531645
0.00047742886960362984
0.0005031800402017233
0.0005282138482034406
0.0005524992676488542
0.000576033495490993
0.0005988447297245491
0.0006209964780056136
0.0006425927012815581
0.0006637796580055352
0.0006847455637703486
0.0007057185633065143
0.0007269644230911273
0.0007487845180190817
0.0007715142854495369
0.0007955220673403574
0.0008212081173778493
0.0008490031907506671
0.0008793616189188736
0.0009126820612059682
0.0009482260966547942
0.0009690283865660098
5.211822928415736e-05
5.696474925834149e-05
6.684392073150845e-05
7.878826710581706e-05
9.261098943763445e-05
0.00010830028953007189
0.00012583074813917445
0.00014514846392594456
0.00016616917244013005
0.00018877798492439036
0.00021283010065850506
0.00023815255124228724
0.00026454703103027114
0.00029179382366335995
0.00031965690633815294
0.0003478903735156544
0.0003762464603185129
0.00040448514098363866
0.00043238465091713623
0.00045975147705413827
0.00048642774446471085
0.0005122949103071109
0.0005372739300531985
0.0005613236842152928
0.0005844400427848572
0.0006066562632966751
0.0006280450051927602
0.0006487201502461277
0.0006688379298760778
0.0006885966654616578
0.0007082356447582292
0.0007280336536014507
0.0007483076744175438
0.0007694119774016622
0.0007917376540521692
0.0008157124192181562
0.0008418001339627007
0.0008704950647546851
0.0009022457389997962
0.0009364019596426825
0.000956502223682954
4.870688080060419e-05
5.3601340231526353e-05
6.365897730040791e-05
7.592678625007319e-05
9.020889979613907e-05
0.00010648218383311812
0.0001247091040564752
0.00014482274527891865
0.00016672457346134824
0.0001902837767466102
0.00021533764009333672
0.00024169312183134283
0.0002691297978981133
0.00029740427819397635
0.0003262561605202588
0.00035541552175494034
0.0003846118274114959
0.00041358387377665257
0.0004420899878792113
0.0004699173610718818
0.0004968894096963513
0.0005228704549895094
0.0005477678606072436
0.0005715324868298838
0.0005941584745849991
0.0006156832081586949
0.0006361875210724432
0.000655795925579431
0.0006746764813796308
0.0006930401839847604
0.0007111400041710512
0.0007292699394877781
0.0007477643610764794
0.0007669978854050525
0.0007873858053194041
0.0008093849608834228
0.0008334945117465863
0.0008602517779596906
0.0008901600505989753
0.0009226705228565556
0.0009419308013725134
4.487826467303564e-05
4.982814193660293e-05
6.009012962400127e-05
7.27257808035687e-05
8.752836567815256e-05
0.00010446212452011787
0.00012347660755448203
0.00014449129791784912
0.00016739272329217893
0.00019203313281823719
0.00021823032167936384
0.0002457689149591402
0.00027440336896488436
0.00030386285716086113
0.00033385805315623254
0.00036408967269689683
0.0003942584115503548
0.00042407568769514865
0.00045327434869836986
0.0004816184068894589
0.0005089109385885267
0.0005349996509750522
0.0005597801116725216
0.000583197058425665
0.0006052444509979711
0.0006259648264696377
0.0006454483645050681
0.0006638317348241557
0.0006812968735899896
0.0006980696992284634
0.0007144190006571662
0.0007306557267922188
0.0007471329076179914
0.0007642463650897176
0.0007824362320203548
0.0008021891677504575
0.0008240407233159699
0.0008485732131174005
0.0008763484776456708
0.0009069321782719552
0.0009251995831464389
4.065841560676488e-05
4.56683605300111e-05
5.615586398521171e-05
6.919917156348985e-05
8.457901930695945e-05
0.0001022460857739101
0.00012213680082752667
0.00014415716463818143
0.00016817876448769518
0.00019403637240685952
0.00022152689275489862
0.000250410123661575
0.00028041171393981796
0.0003112285327241895
0.00034253641628199043
0.0003740000209222987
0.0004052842219852587
0.0004360662763421408
0.0004660477868625974
0.0004949655246484766
0.0005226002691478779
0.000548783197849433
0.0005733996975522971
0.0005963908925127136
0.0006177533758262366
0.0006375377160748538
0.0006558462673233125
0.0006728306825058995
0.0006886894772193359
0.0007036659305095728
0.0007180465941954651
0.0007321606719218396
0.0007463804624385556
0.0007611229798618924
0.0007768527629199356
0.0007940857183877216
0.000813393465656397
0.0008354037484735993
0.0008607392541112851
0.000889092723814146
0.000906199314930764
3.609330599162579e-05
4.116258329009296e-05
5.188737489398743e-05
6.53686865023305e-05
8.13734539401576e-05
9.98384521102271e-05
0.00012068768396362146
0.0001438147868968296
0.0001690773188391971
0.00019629268105910807
0.000225235698813964
0.00025563852793565747
0.00028719343795070206
0.00031955874695454304
0.0003523678468737373
0.00038524087735733415
0.00041779827214168195
0.0004496751297526779
0.00048053523537021386
0.0005100835992113692
0.000538076577603645
0.0005643290402665875
0.0005887183946430669
0.0006111857582795402
0.0006317347632849167
0.0006504287038121498
0.000667386733072311
0.0006827797253048484
0.0006968264465186802
0.0007097904003300451
0.0007219778220683379
0.0007337370440335355
0.0007454594638642215
0.0007575822012481061
0.000770592414343549
0.0007850331100279696
0.0008015099121266875
0.0008206945496374474
0.0008432709719440365
0.0008690706945738087
0.0008848342769546406
3.12539949285256e-05
3.637298192369651e-05
4.733100816598257e-05
6.126449297660363e-05
7.792608313180836e-05
9.72392556910993e-05
0.00011911755004447461
0.00014344476367183966
0.00017006661179492076
0.00019878413163976143
0.0002293491865437589
0.00026146304456707965
0.00029477882902816577
0.0003289082091805146
0.00036343221290611484
0.00039791553815654953
0.00043192323845005475
0.0004650383668181686
0.0004968790168016798
0.0005271132828366401
0.0005554710244704975
0.0005817517243945073
0.0006058283186136792
0.0006276473105303041
0.0006472258990903172
0.0006646470122502259
0.000680053246632752
0.0006936406184186814
0.0007056529199466644
0.0007163773169855088
0.0007261416483776488
0.000735313761079616
0.000744303061078163
0.0007535643684393085
0.0007636040255006433
0.0007749880899748503
0.000788352009829805
0.0008044078467297509
0.0008238989421060452
0.0008468058399599271
0.0008610319624400588
2.6241584633196182e-05
3.138717662209585e-05
4.255014431785765e-05
5.6925036452590364e-05
7.425104158026068e-05
9.444026257183836e-05
0.00011739948859706605
0.00014300714784531312
0.00017110109872087823
0.00020146831903393087
0.00023383727648947767
0.0002678745286169079
0.00030318663616885354
0.0003393279165539459
0.00037581387171671716
0.0004121393136325331
0.00044779965317921956
0.0004823132953011794
0.0005152429608424902
0.0005462139774669199
0.0005749280264561477
0.0006011715371852502
0.0006248186640259728
0.0006458294190361139
0.0006642440070010273
0.000680174729973174
0.0006937967450776141
0.0007053390177812925
0.0007150764049116805
0.0007233237217397985
0.0007304322620323122
0.0007367891269348853
0.00074281949863912
0.000748991915381531
0.0007558264979753115
0.0007639059683148725
0.0007738889417347479
0.0007865215397787452
0.0008026021557808666
0.0008222685649527848
0.0008347539279598637
2.119115604102861e-05
2.6321040377907937e-05
3.762593823728934e-05
5.239581816978672e-05
7.035903253351232e-05
9.141995049592181e-05
0.00011548460856719888
0.00014243324830240888
0.00017210253672732758
0.00020426956315085774
0.00023863964461872555
0.00027484001385419757
0.00031242094346094315
0.0003508650516352699
0.00038960450368404433
0.00042804478497102827
0.0004655926895686648
0.0005016855833282427
0.0005358187982932725
0.0005675683703528669
0.0005966071307897225
0.0006227132227348629
0.0006457711704340716
0.0006657665733804743
0.0006827761331937867
0.0006969548961778618
0.0007085226950914547
0.0007177513977942629
0.0007249542207881496
0.0007304780277409517
0.0007346990903357263
0.0007380225657344417
0.0007408857581600047
0.0007437650944361072
0.0007471867838150844
0.000751741084025378
0.0007580998966386584
0.0007670343744102212
0.000779390618021371
0.0007954700463959062
0.0008060077857587444
1.6273224726931943e-05
2.1319260730726486e-05
3.265637021609031e-05
4.7726905991057116e-05
6.625346660036394e-05
8.813772561015711e-05
0.00011329405087089244
0.00014161605916445744
0.00017294967437533751
0.00020706891932821217
0.00024365719822741434
0.0002822967973011968
0.0003224688073257572
0.000363564624876057
0.00040490870457665374
0.000445790603459593
0.0004855028543793058
0.0005233802147964274
0.0005588356319723553
0.0005913889259629946
0.0006206854696721675
0.0006465039125030168
0.0006687535806677809
0.0006874635020356683
0.0007027658024553146
0.0007148763419359178
0.0007240752466904335
0.0007306895158362178
0.0007350790688426887
0.0007376272390883363
0.000738735978275737
0.0007388258910558274
0.000738340909054187
0.0007377574143699281
0.0007375976429741035
0.0007384473444946934
0.0007409779788027962
0.0007459714976111247
0.0007543135903338183
0.0007664723568613515
0.0007748585403093306
1.169173636216872e-05
1.6552385617010976e-05
2.7752485123568027e-05
4.2970525125610554e-05
6.192695419888136e-05
8.452727886400853e-05
0.0001107101107319169
0.00014039993052028543
0.0001734673243766135
0.0002096937284435913
0.0002487434834414463
0.0002901471784771428
0.00033329959476939146
0.0003774741912141433
0.00042185393313654327
0.0004655756034285587
0.0005077823609448526
0.0005476776597960998
0.0005845734402684751
0.0006179266502849053
0.0006473604653597236
0.0006726693925873146
0.0006938099792865531
0.0007108806923885396
0.0007240953493229489
0.0007337544441635785
0.0007402179692344571
0.0007438823548424791
0.0007451630701086494
0.0007444835503213345
0.0007422704868564229
0.0007389551341516025
0.0007349801517553339
0.0007308114965325634
0.0007269550456484595
0.0007239778288823847
0.0007225339169252636
0.0007233956582314082
0.0007274664245541068
0.0007353990366589557
0.000741443893833329
7.6711190793787e-06
1.2207341261430534e-05
2.303760545223937e-05
3.8180686157915314e-05
5.735495197796559e-05
8.048863805065023e-05
0.00010756779765739537
0.00013857143198900925
0.00017341671157168436
0.00021190831708867887
0.00025369731281923725
0.0002982550260849621
0.00034486739131622005
0.00039265324988366803
0.00044060685543240646
0.0004876605366858672
0.0005327593828107097
0.0005749370553573383
0.000613381585287237
0.00064748213637933
0.0006768519252706169
0.0007013271859279631
0.0007209460963564349
0.0007359140453544984
0.0007465623665204158
0.0007533068505839456
0.000756610854393161
0.0007569559077902909
0.0007548211399488621
0.0007506716120972065
0.0007449548640884926
0.000738104718929899
0.0007305513788389725
0.0007227370027573012
0.0007151362719357164
0.0007082816726454711
0.0007027936635485073
0.0006994131310798856
0.0006990293372681162
0.0007024381274589378
0.0007059613828467033
4.472769358724124e-06
8.491642959588566e-06
1.8645447677041086e-05
3.340176013497405e-05
5.2492212877255115e-05
7.589262994771527e-05
0.00010366244697349837
0.00013586743289471307
0.00017250250081263775
0.00021342010391940322
0.00025826946402047004
0.00030645554538863727
0.00035712648646354754
0.0004091962452272367
0.0004614038289409452
0.000512403739029636
0.0005608745366018223
0.0006056280554215651
0.0006457008372556596
0.0006804140684992263
0.0007093956440384902
0.0007325663212225598
0.0007500982113204945
0.0007623570455303058
0.0007698394931868042
0.0007731147154041357
0.0007727759712344522
0.0007694050622589356
0.000763549994391267
0.0007557146739276465
0.0007463587745713951
0.0007359058713629394
0.0007247581975034776
0.0007133169499300482
0.0007020075486671931
0.0006913098973026647
0.0006817935908531216
0.0006741592263478156
0.0006692595117247673
0.0006680104576286714
0.000668839808773974
4.852016796613126e-05
7.208633782640421e-05
0.00013394361531713384
0.0002644380776532738
0.00031674304887620183
0.0004288813104979994
0.00048576358336117946
0.0005928360521586371
0.0006399525692306166
0.0007158948669802127
0.0007437200482917592
0.000764759940225737
0.0007793901596856691
0.0007881953974890796
0.0007918805407531502
0.0007911939391445456
0.0007173983981878698
0.0007026775795269184
0.0006492005602604746
0.0006401666297773438
0.000632845819689521
2.4112509673832513e-06
5.970991513836491e-06
1.5390082679471312e-05
2.96348302487258e-05
0.0001004996924487655
0.00017251679701991648
0.00021613364825928745
0.00037201026006626766
0.000540962038504913
0.0006812073795302024
0.0007868690152310449
0.0007795856625839461
0.0007699497806348758
0.0007584877252831702
0.0007456523624047382
0.0007318374706494952
0.0006880345677442002
0.0006738809188289776
0.0006607213007656491
0.0006345918814894075
1.486236777829488e-06
4.478097124193032e-06
1.3009422650844085e-05
2.651913742209323e-05
4.482179581837055e-05
6.801260227601514e-05
9.633730916873294e-05
0.0001300787334813138
0.0001694337898223839
0.00021439410686531168
0.0002646376729245656
0.0003194485799118689
0.0003776839558357009
0.0004378050540574613
0.0004979791753076522
0.0005562428044584526
0.0006106988622600082
0.0006597093656622005
0.0007020452240396835
0.0007369669184256924
0.0007642296105890315
0.0007840241310925658
0.0007968769667310904
0.0008035346673146328
0.0008048540833320868
0.0008017118846934319
0.0007949394152380898
0.0007852827948772635
0.0007733848400178067
0.0007597838933748988
0.0007449246878533422
0.0007291775237723659
0.0007128628799696771
0.0006962802341745686
0.0006797406335153449
0.0006636036154355511
0.0006483201558222237
0.0006344818968767006
0.0006228824494044395
0.0006145237748364162