# vtk DataFile Version 2.0
time_10.vtk
ASCII
DATASET UNSTRUCTURED_GRID
POINTS   4141  float 
0.00010710855529167158        -1.513570403820963e-17        0.0                           
0.2500000000000002            0.00010177759380613306        0.0                           
0.500098748664908             4.966289750156343e-17         0.0                           
0.75                          9.186147728737293e-05         0.0                           
1.0000879692347973            -8.524590296048407e-17        0.0                           
1.25                          7.922309296483312e-05         0.0                           
1.5000743522992792            -2.93565600429266e-17         0.0                           
1.75                          6.35957516076223e-05          0.0                           
2.000057711184333             -3.4945080351370404e-17       0.0                           
2.25                          4.495423237358548e-05         0.0                           
2.5000381004380334            -9.278699958709166e-18        0.0                           
2.75                          2.3514898798384483e-05        0.0                           
3.000015831889741             1.6049884493402857e-17        0.0                           
3.2499999999999996            4.369887663590294e-18         0.0                           
3.4999910767940072            7.507004223991793e-17         0.0                           
3.75                          -2.7012361943951157e-05       0.0                           
3.999963714971002             -2.2856849788514616e-17       0.0                           
4.25                          -5.5324474962778784e-05       0.0                           
4.499934918292684             -2.376159031191607e-16        0.0                           
4.75                          -8.504673610570818e-05        0.0                           
4.999904750606246             -1.858223327168526e-17        0.0                           
5.25                          -0.0001160991222980567        0.0                           
5.499873244518594             8.687816584760543e-17         0.0                           
5.75                          -0.0001485743811679812        0.0                           
5.999840237934553             -4.1138254697740285e-17       0.0                           
6.25                          -0.0001827749784371173        0.0                           
6.499805360863511             6.179810745706549e-16         0.0                           
6.75                          0.00010676649839443985        0.0                           
7.00010421866438              7.428755808158532e-06         0.0                           
7.250008054650692             9.841716189571438e-05         0.0                           
7.500095120107125             9.40589906398036e-06          0.0                           
7.750010124527259             8.764159004991573e-05         0.0                           
8.000083431339878             1.162813268221723e-05         0.0                           
8.250012404597486             7.40188442538117e-05          0.0                           
8.500068805680597             1.3985147862723427e-05        0.0                           
8.75001478073265              5.7360791426984366e-05        0.0                           
9.00005113587054              1.636250071413855e-05         0.0                           
9.250017141340358             3.771836183695387e-05         0.0                           
9.50003054808552              1.8658216335983056e-05        0.0                           
9.750019389888946             1.5351077915636714e-05        0.0                           
10.000007332552821            2.078753853106603e-05         0.0                           
2.1560037856508493e-05        0.2999904296791974            0.0                           
0.24998157545997587           0.3000229465073003            0.0                           
0.5000235656261145            0.299963235755536             0.0                           
0.7499537966982331            0.3000247698993687            0.0                           
1.0000253573559275            0.2999344304278449            0.0                           
1.249924517014528             0.3000265131477082            0.0                           
1.5000270873154156            0.29990424975872604           0.0                           
1.7498938971446272            0.3000282453902107            0.0                           
2.000028836798718             0.29987273776613993           0.0                           
2.2498619164596922            0.3000300636560198            0.0                           
2.5000307067079883            0.29983973410905973           0.0                           
2.7498283427855172            0.3000320698507529            0.0                           
3.0000327962857543            0.2998048670811098            0.0                           
3.2497927399198705            0.30003435298707043           0.0                           
3.500013656230566             0.30010320403903895           0.0                           
3.7501004392907915            0.3000160896213019            0.0                           
4.0000174123591785            0.30009413205081864           0.0                           
4.250090549483792             0.3000202383814171            0.0                           
4.50002172634422              0.30008244605136936           0.0                           
4.7500779017844525            0.3000248100495262            0.0                           
5.000026388305058             0.30006779262062355           0.0                           
5.250062222666084             0.30002957448194423           0.0                           
5.500031166020789             0.30005006105785714           0.0                           
5.750043480850027             0.3000343087985826            0.0                           
6.00003584721013              0.3000293651262621            0.0                           
6.25002184930442              0.3000388345714224            0.0                           
6.500040282275061             0.3000059338497174            0.0                           
6.749997576813684             0.3000431494413286            0.0                           
7.000044539347388             0.2999801392247123            0.0                           
7.249971078707891             0.30004712922397236           0.0                           
7.500048355505854             0.2999523647108392            0.0                           
7.749942746114454             0.30005072953986495           0.0                           
8.000051889150411             0.29992304007999215           0.0                           
8.249912965568432             0.30005418436170833           0.0                           
8.500055333788438             0.2998923860982504            0.0                           
8.749881878025699             0.3000576737922776            0.0                           
9.000058880002113             0.2998603963677453            0.0                           
9.249849402789097             0.3000614037518408            0.0                           
9.500062736160217             0.29982683976259683           0.0                           
9.749815234592859             0.30006557573700066           0.0                           
10.000067094510277            0.2997912712134548            0.0                           
0.00010402714135091255        0.6000204262243213            0.0                           
0.25002219879292015           0.6000987650852451            0.0                           
0.50009576343099              0.6000260747425608            0.0                           
0.75002816027871              0.6000889088209257            0.0                           
1.0000850197514457            0.6000325706455027            0.0                           
1.250034870308716             0.6000762502480463            0.0                           
1.5000713520950424            0.6000395926079547            0.0                           
1.7500419888355812            0.6000605082245655            0.0                           
2.0000545632020423            0.6000467884219844            0.0                           
2.2500491687372604            0.6000416487351334            0.0                           
2.500034694538211             0.6000538412037512            0.0                           
2.7500561186310026            0.6000198404758507            0.0                           
3.000011962597439             0.6000605416874973            0.0                           
3.250062689837555             0.5999953913410102            0.0                           
3.499986738815235             0.6000668363505143            0.0                           
3.750068811737667             0.5999687663126508            0.0                           
3.9999594721222476            0.6000725664632655            0.0                           
4.250074366611176             0.599940344227617             0.0                           
4.499930537410709             0.6000778654636486            0.0                           
4.750079583964728             0.5999104833598683            0.0                           
4.99990024558795              0.6000830119706836            0.0                           
5.250084744217935             0.5998793504074513            0.0                           
5.49986868484771              0.600088304624054             0.0                           
5.750090156795733             0.5998468749994288            0.0                           
5.999835704803599             0.6000940631768366            0.0                           
6.250096138929929             0.5998127484978634            0.0                           
[...]
POINT_DATA  4141
SCALARS Con float 1
LOOKUP_TABLE default
0.0015026236212681975
0.001644580700024343
0.001926966438005929
0.002258047309791806
0.0026332801881015656
0.0030539284666472885
0.0035209876967313355
0.004034702080042875
0.0045944972103064315
0.00519897314316001
0.005845930724900875
0.006532426585395238
0.007254851065340194
0.008009019688961626
0.008790263982179828
0.009593495977528779
0.01041325261626789
0.011243631649221713
0.012080330390105438
0.012930126288676357
0.013880365428139158
0.014843544555014092
0.015728189347380003
0.01657370981349624
0.01742572635961897
0.018282049585740413
0.01914395590245739
0.020013403801217765
0.020893671052969843
0.02178909247858433
0.0227049183105245
0.02364718279234862
0.024622587919972242
0.02563839139475744
0.026702294069691577
0.02782232351977579
0.02900670462138212
0.0302635822070024
0.031598555936341345
0.03297765983201269
0.03376883329377324
0.0015330221693911725
0.0016785558335378108
0.0019668947093824233
0.0023044070472764667
0.0026865663054891835
0.003114520844611861
0.0035891495384055604
0.0041105725539063885
0.004678090191325224
0.005290181514213789
0.0059445373802816245
0.006638124312119235
0.007367276184347128
0.008127810960191323
0.008915172937491124
0.009724625486308982
0.010551543459752379
0.011392456315749363
0.012246244513310486
0.013135883837282245
0.014041854325880046
0.014936710173733566
0.015813340330310753
0.01668647610590979
0.01754896640688907
0.01841076140372541
0.01927525067702646
0.02014605988249739
0.021027255369497014
0.0219236564355149
0.022840842041584875
0.023785100473942694
0.024763347963110263
0.02578303340124055
0.026852033741685568
0.027978541148453412
0.029170934053079457
0.030437500795391342
0.031783903228132564
0.03317660402495918
0.033976455881425255
0.0015190354862064756
0.0016643666933089886
0.0019530830170219554
0.0022917819081921063
0.0026758510692903876
0.0031064123133111034
0.0035842988851787876
0.00410957864497906
0.004681496525050833
0.005298478836534899
0.005958174686598521
0.006657534017465717
0.007392924875764823
0.008160297979473527
0.008955422935958189
0.009774245227871799
0.010613562200629307
0.011471722946712937
0.012352513757392521
0.013231684877388407
0.014081571240926974
0.01493762726581099
0.015822814104239573
0.016703930623215905
0.01757718024973174
0.018444037332701377
0.01930966947380964
0.020178640117841123
0.021055789047455635
0.021946434407793407
0.02285651050425255
0.02379258698031216
0.024761833024838656
0.02577194897969814
0.026831078212562053
0.027947704267583504
0.029130526360624277
0.030388172346858144
0.031726644452706475
0.03311222530222243
0.0339078979767329
0.0014945556100533222
0.0016398892374864381
0.0019293254108488382
0.0022699501752289153
0.002657153346240876
0.003091995548619303
0.003575232419649005
0.004106840277860172
0.004685964580451295
0.005310930124282824
0.0059792898964732165
0.006687913016414925
0.007433114729114628
0.008210833700956438
0.009016860285795887
0.009847117466177278
0.010697799536609393
0.011565373045289764
0.012439701393816676
0.01330887829307855
0.014171713997044647
0.015033025576005866
0.01589955841025156
0.016772906782346508
0.017643003725683285
0.01850806270521829
0.019370025541141218
0.020232895247994934
0.02110149506911749
0.021981358271014627
0.022878693664523612
0.023800372281364477
0.02475388959007744
0.025747304980531772
0.026789161784331435
0.027888389704367158
0.029054179688990184
0.03029568568339062
0.031619439332154956
0.03299248357983978
0.03378207143061508
0.0014599513658811575
0.0016052852314271844
0.001895800900843013
0.0022392023668518115
0.0026308682051860853
0.0030717741935503327
0.003562561256966655
0.004103070396915698
0.004692295786435931
0.005328398719579709
0.006008758802725481
0.006730061332656313
0.007488419168949429
0.008279521381217658
0.009098786621555804
0.009941438283379468
0.010802394566881071
0.011675056952377508
0.012551999868414229
0.013426916063060916
0.014296649380600506
0.015162926901356
0.01602830393625774
0.01689237252132416
0.017753780749333783
0.018610415329121444
0.019463044218348106
0.020314554477956572
0.021169344975850355
0.022032878002379623
0.02291150384950507
0.023812362042634646
0.024743308707672166
0.02571284309230139
0.026730024284425665
0.027804372689246754
0.028945742131138454
0.030164019120744213
0.03146655988722706
0.032821760958633026
0.03360289480066641
0.0014149148038573043
0.00156030115839939
0.001852300840170156
0.0021993821936388894
0.0025968981037920408
0.0030457072653493644
0.003546297001234544
0.004098326504123213
0.004700583259305686
0.005350997583299201
0.006046691093237724
0.006784056032644776
0.007558859444352712
0.008366358049410168
0.009201391972036326
0.010058414665779978
0.010931341389389377
0.011813693432986234
0.012699056927247428
0.013582149502074788
0.014459938458458345
0.015331397046696428
0.016196550359901602
0.01705541554183514
0.017907347436660368
0.018752209258392785
0.01959087596080487
0.020425910874621638
0.021261397366793163
0.022102704529098485
0.022956285081757878
0.023829541636159274
0.024730725621498834
0.02566884866311811
0.026653592847811394
0.027695210709248033
0.028804399732511178
0.0299920113544631
0.03126655179110102
0.032598119105354574
0.03336783046357374
0.0013591519947543736
0.0015046649382272576
0.0017986099871310948
0.0021503375030373696
0.0025551562467188895
0.003013773916012673
0.0035264843935927715
0.004092719185065766
0.004711005167614572
0.0053789770215523025
0.006093420169884551
0.006850340646223856
0.007645055720525443
0.008472293243662414
0.009326284551692546
0.010200834434525461
0.011089450357817738
0.011985581012641843
0.012883097617553402
0.013776882187641944
0.014663221900811879
0.01553985256361354
0.016405564647729784
0.01725971884142389
0.018102143013345454
0.018933229415494333
0.019754397820527247
0.020568336344974927
0.021379132623579447
0.022192201446911662
0.023014166679610353
0.023852743825566913
0.02471663854451793
0.025615454910828676
0.026559605419241832
0.027560214540104728
0.028629000964679602
0.029778002421375044
0.031017112990620304
0.03231847247277022
0.03307343139537636
0.0012924256142399118
0.0014381597424243042
0.0017345584177703521
0.002091956904599674
0.002505594441443429
0.0029759921177716065
0.003503212182682279
0.004086416628645967
0.004723823944024251
0.005412717112258742
0.0061494799110662305
0.006929659490058625
0.007748052010042987
0.008598806557592412
0.009475544053005311
0.010371506847162575
0.011279760679878525
0.012193490543616322
0.013106370129879101
0.014012935602349461
0.014908851025842537
0.01579097047854775
0.016657233016905332
0.01750651250790103
0.01833852579969155
0.019153914802468117
0.019954387850170546
0.02074289680977789
0.0215237223774438
0.022302485527947093
0.02308609321807497
0.023882660405232084
0.024701427539642523
0.025552679973691848
0.026447667521515946
0.027398518887932623
0.02841813693326886
0.029519937667756253
0.030715431773101293
0.031979226267715245
0.03271565366918205
0.0012146346922268165
0.0013606911730407716
0.0016600768462404895
0.0020242087242352863
0.002448225453176382
0.0029324252529970406
0.003476604628081667
0.004079621695665318
0.004739348529540922
0.005452671736398248
0.006215520809365534
0.007022925127883835
0.007869100505238725
0.008747565822036153
0.009651293507884438
0.010572900654113157
0.011504891724145306
0.01243994993180993
0.013371256119592048
0.0142927858353037
0.015199529878902936
0.016087608992452172
0.016954294642175804
0.017797983341969494
0.01861818886262474
0.01941557246029495
0.020192021011840696
0.020950726682730462
0.021696246991402473
0.02243451992467701
0.023172842181098486
0.023919822100243522
0.02468532200603146
0.025480397527012734
0.02631723544707334
0.02720908691069969
0.028170182145605543
0.029215491155575167
0.030358371165658746
0.03157635356623728
0.03228994448912615
0.0011259077513810889
0.0012723702353053172
0.0015752589972665237
0.001947181929727812
0.002383141659399029
0.002883178709563337
0.0034467969798502936
0.004072527507671723
0.004757870863773312
0.005499285343559132
0.006292204021972712
0.007131085128372826
0.008009500311918223
0.008920264500872445
0.009855610229804562
0.010807408408986755
0.011767432406958237
0.012727654004783796
0.013680546810187594
0.014619365069851361
0.015538367495587412
0.016432970344072772
0.017299834720658592
0.018136911114312725
0.018943466470165617
0.019720115622318856
0.020468858699001613
0.021193119880229223
0.02189777315117548
0.02258914884997649
0.023275019384872257
0.023964570728641124
0.02466836660816416
0.02539831120416845
0.026167611826727544
0.026990738867601494
0.027883369460012252
0.028862182080393692
0.029942595848094836
0.03110554772949277
0.0317914061803151
0.0010267130330207136
0.0011736091068402703
0.0014804307585752445
0.0018611267163446707
0.0023105266429905656
0.0028283830442636377
0.003413892009547621
0.004065250132744657
0.004779578177646489
0.005552888695524301
0.00638008519199824
0.007255001365012685
0.008170488315016438
0.009118554914999903
0.01009056295672895
0.011077473933171577
0.012070138074515825
0.013059608641416759
0.01403745816007857
0.014996070619569578
0.015928887736833354
0.016830597029794274
0.017697261909756564
0.018526403641933996
0.01931705029662057
0.020069765403206527
0.02078666529249833
0.021471427195137678
0.022129288603464876
0.022767037263065667
0.023392994145626723
0.024016993402661436
0.02465036421563366
0.02530591781689691
0.025997940298703285
0.026742187888496638
0.02755587087248619
0.02845749712679139
0.029464734497917137
0.03056241834314765
0.031215011861528575
0.0009179841046449401
0.0010652282295300895
0.0013762230589550843
0.0017664911768685116
0.00223065544535411
0.0027681592108991407
0.003377893299376793
0.004057734788765695
0.004804438630353091
0.005613572104775369
0.006479485457844808
0.007395332052548446
0.008353149564984817
0.009344008906152768
0.010358231255656221
0.011385666418859266
0.01241601814275673
0.01343919542535065
0.014445664605136039
0.015426776914196073
0.016375050513577537
0.017284394070685483
0.018150268181243434
0.01896978933781319
0.019741786091766356
0.020466819312552786
0.021147177475167575
0.021786856132273307
0.02239152897981983
0.022968516758249763
0.023526759873113836
0.024076800464523648
0.024630778374362703
0.025202443615610626
0.025807184869660296
0.026462069699030845
0.027185881919620843
0.027999031599849043
0.028921577038135172
0.029942742041411296
0.030555884450442793
0.0008012560905106959
0.0009485698166552524
0.0012636433321862324
0.0016639486053820287
0.0021438779975756894
0.002702560344560014
0.0033386099121506738
0.004049630337845392
0.004832055036078302
0.005681030221012793
0.0065903412736481115
0.007552402127230683
0.008558323961074067
0.009598072099185846
0.010660710723677668
0.01173472500160827
0.012808401012277522
0.013870236782308424
0.014909354219512595
0.01591588267398079
0.016881289845117105
0.0177986440811297
0.018662801416080486
0.019470519589665877
0.020220508010920756
0.02091342685015978
0.021551850276815304
0.022140208616364374
0.022684723342783056
0.02319334687644984
0.02367571762746638
0.024143138449701073
0.024608584472527513
0.02508674304005835
0.025594084868314593
0.026148960810119193
0.026771708456217017
0.027484648547559564
0.02831030839407784
0.029242768171536183
0.02980964079448425
0.0006788031039100986
0.0008256085775357055
0.0011441372981471573
0.001554408213833929
0.0020505794683405012
0.002631484750031945
0.0032955274272394937
0.004040126849557546
0.004861480906002447
0.0057543717122483466
0.0067120251436620475
0.007726052849169148
0.008786500155601234
0.009882012102950125
0.01100011659548504
0.01212760988302599
0.013251017445144772
0.01435709465189014
0.015433327815784484
0.01646839790425973
0.01745257591861143
0.018378029061170642
0.019239028540060606
0.020032061036213883
0.020755855113454045
0.021411340199927638
0.02200155924664257
0.022531556915426243
0.023008263996570785
0.023440396279320742
0.023838382806187768
0.024214335083580323
0.024582064966526786
0.024957155163279714
0.025357081838843262
0.025801382991059343
0.026311853700661206
0.026912653346825823
0.027628774822816497
0.028459577206783458
0.028972801293912682
0.0005537591937965649
0.0006990442114585703
0.0010196288813093869
0.0014390004873385163
0.0019511124295018938
0.0025545572047855837
0.003247643195023706
0.0040277536876996865
0.004890995430516061
0.005831890091148855
0.006843133915572074
0.007915469110069216
0.009037700105984153
0.010196871805614552
0.01137860815805728
0.012567590201097538
0.013748135808845149
0.014904831488406142
0.01602316177159934
0.017090084647136735
0.01809451109210506
0.01902766113351413
0.019883285202153107
0.02065775514070653
0.021350042000847985
0.021961606715035574
0.022496234163836202
0.02295984214860496
0.02336029428911562
0.023707241995627237
0.02401201519095904
0.024287576500198197
0.024548548226236002
0.02481131731058851
0.025094219147659264
0.025417795484767663
0.025805107174414154
0.02628198054628965
0.026875776576074553
0.027591484454271228
0.028043257223217138
0.0004301958078167813
0.000572351978534297
0.0008925215595921172
0.001319030025692357
0.0018457004394102474
0.002470982423172355
0.0031932698784154128
0.004010140358810092
0.0049178388775345215
0.0059107973090836985
0.006981247641231599
0.008118990743652391
0.0093113661763033
0.01054344760646657
0.011798461953447109
0.013058403015862335
0.014304785283189158
0.0155194665671675
0.01668546112960321
0.017787669886815752
0.018813469330896032
0.019753122617090356
0.02060000071257753
0.02135062412814789
0.022004553883528448
0.02256417190818802
0.023034396231876753
0.023422375648597702
0.023737203731207298
0.023989684806266637
0.02419217623404487
0.024358523441437033
0.024504097491520695
0.024645939987015305
0.024803017036508734
0.024996582692153563
0.02525064102307807
0.025592399380296227
0.026051375746687654
0.02663847272581882
0.02702078610536899
0.0003131100034817283
0.0004497561431475053
0.0007656447914599363
0.0011958929892115998
0.0017343269147061214
0.002379386221298896
0.0031298166957242734
0.003983749682425537
0.004937919187914308
0.005986931564745867
0.007122671525485882
0.008333923264558596
0.009606271789281765
0.010922321293503512
0.012262230923801649
0.013604526987194594
0.014927112796682027
0.016208370269279484
0.017428237219664883
0.0185691526131403
0.019616786734423238
0.020560508174368403
0.02139357757153609
0.022113092013616862
0.022719729411014158
0.02321735656148141
0.02361256863668757
0.0239142234064468
0.024133023222594734
0.024281185304070807
0.02437222747470531
0.02442088540116242
0.02444316816851091
0.024456553508494298
0.024480322062611373
0.024536031740703887
0.024648143720712456
0.024844740906174577
0.025157235476216868
0.025602626086276246
0.02590755145428296
0.0002082872673161952
0.000336086364574311
0.0006421195722549017
0.0010709990315566156
0.0016166454890162857
0.002277649143387359
0.0030535624785922068
0.0039436082836559845
0.004945518197772984
0.00605446698711397
0.007262186748929778
0.008556374275550038
0.009920486426941105
0.011333984959527733
0.012773038845992376
0.014211628292736133
0.015622934132720988
0.016980851771741353
0.018261452249282075
0.019444228198160142
0.02051300394433331
0.021456448099504984
0.022268187255724124
0.022946571885367084
0.023494180268994556
0.023917162792795713
0.024224527842358668
0.02442745768983456
0.024538722617918545
0.02457223975132109
0.024542802965601827
0.024465994322296975
0.024358276413856537
0.024237258976284433
0.024122131283350595
0.024034256690032004
0.02399792911865681
0.024041330771673367
0.024196945630638796
0.024488568157504713
0.024708713495766862
0.0001247843775164259
0.00023645373140670367
0.0005252941263299512
0.0009457625366840256
0.0014918327581228189
0.0021627265023824106
0.0029594696452430176
0.0038831007376892213
0.004933064693166095
0.0061056836871961236
0.007392859740177216
0.008781160738765989
0.010251443058637573
0.011779116428111892
0.013335080324061553
0.014887258938565608
0.016402560506661088
0.017849010000222997
0.019197776285118505
0.020424841265279416
0.021512133980977
0.02244805249913883
0.02322739806497588
0.02385082487389315
0.024323956777666446
0.02465633475921164
0.024860346184609923
0.024950255528772166
0.024941419136946905
0.024849730273047207
0.024691311384285732
0.024482449888839602
0.02423976257750316
0.02398056918427972
0.02372345760865369
0.023489024785081532
0.02330079094609539
0.023186197299665475
0.02317753049732564
0.023303800198041652
0.023432169715487193
6.379128816480621e-05
0.00015620249874979467
0.000418658426003881
0.0008213213047068872
0.0013585662484788678
0.0020309032452957847
0.002841581564660399
0.0037944356718461673
0.0048916261593473795
0.006131487794312574
0.0075066292847312645
0.009002526919550894
0.010596851894040393
0.012259725550596385
0.013954980121429428
0.015642337987696965
0.01728024313553746
0.018828942610449415
0.020253361928617635
0.02152537223837409
0.022625183947929135
0.023541783329376873
0.024272497255385474
0.024821894326523125
0.025200286175791186
0.025422092372637362
0.025504286702764632
0.02546507953286209
0.025322923188869865
0.0250958715877246
0.024801284749345617
0.024455846546710402
0.024075856025360498
0.023677756157113615
0.023278873612821424
0.022898356419748144
0.022558292783439602
0.022285038945473307
0.022109832975106956
0.022065790007803742
0.022095779388786024
0.0012506497255023526
0.001921771171027725
0.0037281459514702272
0.007666777077203022
0.009285503931236411
0.012837136808688117
0.014687588613533151
0.01828801780517343
0.019937239732349562
0.022728338092056138
0.023818524184162953
0.024689998868356832
0.025344817337007476
0.025793583442892072
0.02605310269989141
0.02614402401539529
0.023855135800383596
0.023329918653123977
0.02139392886601558
0.0210664520900722
0.02080050150738575
3.073234928497756e-05
0.00010820473003408896
0.0003432454240009307
0.0007252391900164884
0.002745070635429447
0.004876751390442769
0.006191818390760559
0.011021287134293609
0.01652187251299964
0.021427885864013882
0.026088756250237755
0.025909829592125767
0.025628768120390628
0.025265462459454137
0.024837986059361918
0.024362780109249697
0.022802503070193245
0.02228991087663149
0.021812179423022434
0.02086453824596518
2.1221610795850515e-05
8.077197183779363e-05
0.0002861131211477142
0.0006429429383298951
0.001147415665110235
0.001803229882911597
0.0026191490245568104
0.003605822876543298
0.0047722113141585205
0.0061220391041022235
0.007650467343287819
0.009341426103746005
0.011166117494829177
0.013083165712251547
0.015040673482262948
0.01698007606838512
0.018841260246010984
0.0205680804827301
0.022113294461846508
0.023442099847222293
0.02453382339702049
0.025381746493152803
0.025991411739175144
0.026377957404114086
0.026563064146240007
0.026572009228516196
0.02643117050906826
0.026166157389324346
0.02580060879256585
0.025355604605304324
0.024849589044666043
0.024298694004646466
0.023717364093074633
0.023119212804577204
0.02251807310611874
0.02192923375526297
0.021370898559778004
0.020865847622878752
0.02044345369053174
0.020139596928763926
0.02001723716369044
2.3451738039393952e-05
6.558845609163749e-05
0.0002429819441856835
0.0005754776558125963
0.0010595558476843132
0.0017001637167775683
0.0025086790888455644
0.0034990894131438468
0.00468392402557643
0.006070047846370647
0.007654613511934553
0.009421667310778334
0.01134008712801236
0.013363518257560485
0.015432722545858146
0.017480270377756613
0.019436911880812244
0.021238476769318504
0.022831981618296127
0.02417985158256695
0.02526169401949279
0.026073674214241387
0.02662602688699493
0.026939478835935633
0.02704136130826982
0.026962029235032887
0.026731972793701476
0.02637978140982868
0.025930947820941047
0.025407396013322266
0.02482757483850777
0.024206962970642502
0.02355886112373794
0.022895389063440595
0.02222864555153271
0.021572035712078004
0.020941753830763632
0.0203586151397872
0.019849374952309033
0.019454889706741484
0.019283230684837678
3.414628099953041e-05
5.8598757231785864e-05
0.0002066276488048996
0.0005125392195426732
0.0009735207414462271
0.0015959130882045509
0.0023940158040606763
0.0033856831070956865
0.004587650733570778