# vtk DataFile Version 2.0
time_10.vtk
ASCII
DATASET UNSTRUCTURED_GRID
POINTS   4141  float 
1.3010138646531558e-05        -1.0485750336479359e-15       0.0                           
0.2499999999999999            1.2300407593021611e-05        0.0                           
0.5000119067893983            -7.172953160037001e-18        0.0                           
0.7500000000000021            1.1029430088471645e-05        0.0                           
1.000010541494928             -1.3473488541042597e-17       0.0                           
1.25                          9.459153426418355e-06         0.0                           
1.500008862651341             -2.0567951060146556e-17       0.0                           
1.75                          7.5565488979561115e-06        0.0                           
2.0000068470859116            3.4244260618557303e-19        0.0                           
2.2500000000000013            5.3183712413795774e-06        0.0                           
2.5000045013965395            2.4414218792698758e-17        0.0                           
2.75                          2.771022215891442e-06         0.0                           
3.0000018634006005            2.218231751854748e-17         0.0                           
3.25                          9.178152407061497e-17         0.0                           
3.4999989575431525            2.2888708979917763e-18        0.0                           
3.7500000000000004            -3.1479881644930443e-06       0.0                           
3.9999957770211245            2.969139766662253e-17         0.0                           
4.25                          -6.420597295042957e-06        0.0                           
4.499992458273064             3.7082426779534695e-17        0.0                           
4.75                          -9.824959264551738e-06        0.0                           
4.999989013816418             -3.183473365203457e-16        0.0                           
5.25                          -1.3347768689917162e-05       0.0                           
5.499985450942933             -4.2040556385126905e-18       0.0                           
5.749999999999997             -1.6997498152968762e-05       0.0                           
5.999981752371985             9.506495666611893e-17         0.0                           
6.25                          -2.0809607091641305e-05       0.0                           
6.4999778736874045            4.260926446405404e-15         0.0                           
6.75                          1.2974732896822534e-05        0.0                           
7.000012632349785             9.893861064786615e-07         0.0                           
7.25000105526387              1.187267854462825e-05         0.0                           
7.500011450049629             1.1992784998826665e-06        0.0                           
7.750001276595504             1.0507888486096578e-05        0.0                           
8.000009984800322             1.4394400009634072e-06        0.0                           
8.250001523918362             8.828416754681682e-06         0.0                           
8.500008193764788             1.696295148966811e-06         0.0                           
8.750001783132117             6.8109396641517444e-06        0.0                           
9.000006063603125             1.9555876113414703e-06        0.0                           
9.250002040278767             4.461682465635155e-06         0.0                           
9.500003609853042             2.204475607716311e-06         0.0                           
9.75000228317933              1.8127628478151657e-06        0.0                           
10.00000086883088             2.4320663828313105e-06        0.0                           
2.514133776872758e-06         0.29999888846894623           0.0                           
0.24999785591392876           0.30000265917893504           0.0                           
0.5000027229625937            0.29999572662429586           0.0                           
0.7499946355178269            0.300002845545641             0.0                           
1.0000029045956258            0.2999924070190755            0.0                           
1.2499912715513954            0.3000030194699027            0.0                           
1.5000030760188143            0.299988961236546             0.0                           
1.7499877867714582            0.30000318950435795           0.0                           
2.0000032474012293            0.2999853977820967            0.0                           
2.2499841816599586            0.30000336802848004           0.0                           
2.5000034317806676            0.29998169956278986           0.0                           
2.7499804299320236            0.30000356863082406           0.0                           
3.0000036426383807            0.2999778220279061            0.0                           
3.2499764783483207            0.3000038037638913            0.0                           
3.500001853230589             0.30001252754292146           0.0                           
3.7500121624486193            0.3000021080815498            0.0                           
4.000002248561596             0.30001134852830375           0.0                           
4.250010894771798             0.3000025517915562            0.0                           
4.500002712668203             0.3000098837559887            0.0                           
4.750009323607038             0.3000030477647609            0.0                           
5.000003219820491             0.3000080896341254            0.0                           
5.250007415185306             0.3000035675713056            0.0                           
5.500003741210302             0.3000059524952921            0.0                           
5.750005165684757             0.3000040833094512            0.0                           
6.000004250128826             0.3000034866084723            0.0                           
6.250002596876646             0.30000457218901744           0.0                           
6.5000047270743035            0.30000072157873875           0.0                           
6.7499997413014725            0.3000050312538684            0.0                           
7.00000517717758              0.29999770471342624           0.0                           
7.249996651217959             0.30000544558794834           0.0                           
7.500005570958074             0.2999944850522641            0.0                           
7.7499933766962155            0.30000581056701686           0.0                           
8.00000592618587              0.29999111645717685           0.0                           
8.249989966349663             0.30000615279306675           0.0                           
8.500006265498845             0.2999876282135439            0.0                           
8.749986440010591             0.30000649446340416           0.0                           
9.000006612742851             0.2999840222755394            0.0                           
9.249982790448001             0.30000686205322913           0.0                           
9.500006995113267             0.2999802724929097            0.0                           
9.749978982011532             0.3000072827928782            0.0                           
10.000007439091677            0.29997632494301113           0.0                           
1.2691138328148165e-05        0.6000027727347668            0.0                           
0.2500029574051389            0.6000119898481496            0.0                           
0.5000115995970073            0.6000033674374801            0.0                           
0.7500035906277177            0.6000107263738855            0.0                           
1.0000102389620151            0.6000040665449496            0.0                           
1.250004316184399             0.6000091541871135            0.0                           
1.5000085546425646            0.6000048306768435            0.0                           
1.750005092246161             0.6000072386973306            0.0                           
2.0000065223986043            0.6000056161345841            0.0                           
2.2500058755404204            0.6000049759113872            0.0                           
2.5000041476604506            0.6000063829666784            0.0                           
2.7500066290364935            0.6000023873441742            0.0                           
3.000001458124181             0.6000071035955425            0.0                           
3.250007332133361             0.5999995122546398            0.0                           
3.4999985005958               0.6000077688661094            0.0                           
3.7500079744436077            0.5999964084039409            0.0                           
3.9999953312582965            0.60000836008511              0.0                           
4.250008542501516             0.5999931244677443            0.0                           
4.499991998205415             0.6000088926271443            0.0                           
4.75000906269615              0.5999897058312581            0.0                           
4.999988541043953             0.6000093993194859            0.0                           
5.250009568717614             0.5999861749483152            0.0                           
5.499984972823498             0.600009917271297             0.0                           
5.75001009956257              0.5999825255909214            0.0                           
5.999981277439482             0.6000104879692373            0.0                           
6.2500106970667835            0.5999787217887017            0.0                           
[...]
POINT_DATA  4141
SCALARS Con float 1
LOOKUP_TABLE default
2.7526945391585587e-05
2.9507953758355653e-05
3.3427769322453084e-05
3.799984547685268e-05
4.3155207302836466e-05
4.890671436118502e-05
5.5263990578596135e-05
6.222660606488893e-05
6.97830578793722e-05
7.791057530054432e-05
8.657537709250978e-05
9.573333702432522e-05
0.00010533099052292351
0.00011530676483938193
0.00012559223745497387
0.0001361130779861798
0.00014678951902099953
0.0001575357186693412
0.00016828009331547024
0.00017911738271009976
0.0001912349344445656
0.00020337269031535152
0.00021430280540009247
0.00022469281005156415
0.0002350666328185258
0.0002453936156730586
0.0002556889685632254
0.00026598101119497625
0.0002763173234996843
0.00028676124095989826
0.0002973900124586944
0.0003082932216208724
0.00031957143358503235
0.0003313349629787623
0.00034370264947081435
0.00035680058152504123
0.00037076055607354407
0.0003857159782173196
0.000401765162161725
0.00041847462262563156
0.0004280977056572361
2.7935909585378777e-05
2.996251324190639e-05
3.396095469404937e-05
3.861763691931102e-05
4.386376228943899e-05
4.971057006048263e-05
5.616607029193375e-05
6.32281270550708e-05
7.088352221848588e-05
7.910783273629734e-05
8.786577997481972e-05
9.711201624842847e-05
0.00010679231669825986
0.00011684514724840022
0.0001272036112428037
0.00013779806670460455
0.0001485601496264742
0.00015943568264227846
0.00017040568574286103
0.0001817364780432016
0.00019318189607612346
0.00020442788243089547
0.00021534090409845973
0.00022606407311068086
0.00023655529118543313
0.0002469353527896777
0.0002572484743499848
0.00026754379786064373
0.0002778787305576276
0.00028832260931873667
0.0002989567521685248
0.00030987387046928834
0.0003211771630044985
0.0003329792805761144
0.0003454012101781113
0.0003585710446932994
0.0003726224479920641
0.0003876905964139575
0.00040387490012358025
0.0004207490920509389
0.0004304782816411736
2.770295365055125e-05
2.9728971143038976e-05
3.373630915738106e-05
3.841365138232672e-05
4.3690591908333264e-05
4.9577747309526235e-05
5.608227824583155e-05
6.320113631327442e-05
7.092017030098327e-05
7.921407633039732e-05
8.80468552081509e-05
9.737277939864607e-05
0.00010713791174937264
0.00011728227631931347
0.00012774299069379086
0.00013845898662830458
0.00014937974814238246
0.00016047542102221827
0.00017178293667773566
0.00018300614064715217
0.00019373913641496847
0.00020443917204421443
0.00021544571772807707
0.00022629368180214542
0.00023692164909450885
0.0002473623613922924
0.0002576851619922983
0.00026795258489033534
0.00027823216213589765
0.0002885995601142645
0.0002991404492892697
0.00030995085142341135
0.00032113682211769475
0.00033281376633037996
0.00034510553369254053
0.00035814334576921914
0.0003720643526308896
0.00038700762244639545
0.0004030774089901425
0.00041984969338237823
0.00042952385214548646
2.7299505179595625e-05
2.9328966942562634e-05
3.3352986449101855e-05
3.806461219569918e-05
4.339290022424763e-05
4.934720239380769e-05
5.5933253741418245e-05
6.314642884633787e-05
7.097092355554986e-05
7.937977852770223e-05
8.833543091630984e-05
9.779080760972772e-05
0.00010769100323962663
0.00011797561353296173
0.00012858177480558442
0.0001394479356847974
0.00015051608725818877
0.000161731983062402
0.00017296179897587367
0.00018403614484303622
0.00019493903178735835
0.0002057248935109473
0.00021647159190791776
0.00022720698257561728
0.00023779360920375556
0.0002482074414372251
0.00025847890008965524
0.0002686643328040729
0.00027883173856016414
0.0002890597413086063
0.00029943744529817165
0.00031006443758791933
0.000321050488526977
0.0003325149967173241
0.0003445862373635407
0.00035740041213127405
0.00037110033631590017
0.0003858315566211167
0.0004017056334462408
0.0004183105909937654
0.0004279032124465524
2.6729067016078485e-05
2.876358750016854e-05
3.2812203192631724e-05
3.757317307300234e-05
4.2974586742293287e-05
4.902405574418215e-05
5.572523702774831e-05
6.307119980842566e-05
7.104366119917248e-05
7.9613058221033e-05
8.873912666847153e-05
9.8371991555174e-05
0.00010845374775632457
0.00011892044628997086
0.00012970421916654414
0.0001407345331649303
0.00015193718461244888
0.00016321967305377234
0.00017447734157216964
0.00018562279133098358
0.00019660653349629794
0.00020744675318560562
0.00021817471041863298
0.00022878045520383422
0.00023924661100704938
0.0002495462521291719
0.00025969243065492254
0.0002697277732139185
0.0002797153550292431
0.0002897331804872861
0.0002998721306263441
0.0003102349030123795
0.0003209353098084777
0.00033209760709064864
0.0003438557716237275
0.0003563526434333295
0.00036973873067234976
0.00038416845222761603
0.0003997638985555941
0.00041612958307097876
0.0004256041988811885
2.598648694905698e-05
2.8028474274633638e-05
3.211048862077019e-05
3.6936825954370253e-05
4.243417983963349e-05
4.860782197794069e-05
5.545865795002686e-05
6.297668582097353e-05
7.11402709363321e-05
7.991622398894158e-05
8.926034955816239e-05
9.911844066549381e-05
0.00010942765360787344
0.00012011809388850921
0.00013111422919652322
0.00014233557848156522
0.00015369514673233868
0.00016510105279303626
0.00017646296371001452
0.00018770488820522206
0.0001987821887933689
0.00020967779196824442
0.00022038957331056217
0.0002309165900869203
0.00024124955086693588
0.0002513883187714783
0.00026134776737992544
0.0002711663431977445
0.00028090346613020186
0.0002906361831337989
0.0003004566403776793
0.0003104705197443089
0.00032079599322137165
0.00033156290532968994
0.00034291204690640976
0.00035499437983261894
0.00036796997386892387
0.0003820044375486307
0.00039723324419494474
0.0004132824313092323
0.00042260031288366567
2.5066532304508763e-05
2.7118876165114297e-05
3.12441578994652e-05
3.6153058762076454e-05
4.1770362660855036e-05
4.809837483926354e-05
5.513456044970731e-05
6.286508728340423e-05
7.1264112914871e-05
8.029383341880325e-05
8.990497012741174e-05
0.00010003765567982954
0.0001106226581728882
0.00012158280334446215
0.00013283439044097412
0.0001442883741870836
0.0001558522030222879
0.00016743308431139408
0.0001789441451552814
0.00019031279627727975
0.00020148613700813069
0.000212432065705933
0.00022313373336656114
0.0002335826311403817
0.00024377753968593194
0.00025372589638050514
0.00026345028829520344
0.0002729912389515102
0.00028240853089678974
0.00029177998206365613
0.0003011998146585034
0.0003107772356716424
0.00032063536446685415
0.0003309104145425457
0.00034175102917982647
0.00035331763688411003
0.0003657815857475631
0.0003793218235811192
0.0003940900026493807
0.00040973888326153996
0.00041885730043974054
2.3964505304373644e-05
2.6030592485685794e-05
3.021003175317162e-05
3.521986543307825e-05
4.0982360403149004e-05
4.749619941335889e-05
5.475473856670317e-05
6.273960717729362e-05
7.141997165274301e-05
8.075253066085077e-05
9.068191874433162e-05
0.00010114151816922881
0.0001120546407247911
0.00012333602835693753
0.00013489361519178762
0.00014663070266033337
0.0001584488043384218
0.00017025165812244297
0.0001819503553902823
0.00019346854827259402
0.00020474639401633855
0.0002157414474729686
0.00022642708760866302
0.0002367902281895623
0.0002468298854403531
0.0002565583571672352
0.00026600304911914225
0.0002752086507812317
0.00028423790313932457
0.0002931714450850624
0.00030210693931067634
0.000311158090228133
0.000320453786745661
0.0003301374495912765
0.00034036654718199333
0.0003513121821002261
0.000363158505367943
0.00037609976576350314
0.00039030643499355917
0.00040546338162416706
0.000414334915154143
2.26773589131357e-05
2.4760925177125852e-05
2.9006208521261313e-05
3.413630681016231e-05
4.007027266053417e-05
4.680250808498603e-05
5.432164595615403e-05
6.260416106410965e-05
7.161356855889936e-05
8.130031468904293e-05
9.160208705665355e-05
0.00010244456635587822
0.00011374264503875426
0.00012540211419126063
0.0001373218542301292
0.00014939658867495006
0.00016152031675816374
0.00017359041363890107
0.0001855121231367378
0.000197202820257887
0.00020859516024161173
0.0002196386550465329
0.00023029973374916426
0.0002405610735055189
0.00025042118544419133
0.00025989457817883433
0.0002690125999440681
0.00027782420536984106
0.0002863964140681411
0.0002948141930113635
0.0003031799672428749
0.0003116129915076975
0.0003202487993177006
0.0003292388196787573
0.00033875019156505014
0.0003489656906092247
0.00036008354455762016
0.0003723149931056735
0.0003858517450264633
0.00040041631467851676
0.0004089881264787951
2.120501968505496e-05
2.330986415002181e-05
2.763296452071648e-05
3.290310594607531e-05
3.903536404888364e-05
4.601922889847867e-05
5.3838092220251816e-05
6.246280822903533e-05
7.185073652553832e-05
8.194546391559642e-05
9.267697162832809e-05
0.00010396231592550153
0.00011570689786481483
0.00012780635972990857
0.00014014914213822798
0.00015261969251978975
0.00016510227880902833
0.00017748524002727403
0.000189665342467995
0.00020155176370468666
0.0002130692297020435
0.00022416000785936924
0.00023478480528543017
0.0002449229559348638
0.00025457230930624674
0.00026374920066774964
0.0002724885238217667
0.00028084380730752977
0.0002888871509413995
0.0002967089456041531
0.0003044174588485696
0.0003121384276932143
0.0003200147816515851
0.0003282065970427815
0.0003368912935936621
0.0003462640199532901
0.0003565380053593862
0.0003679427993233328
0.0003806934239273191
0.0003945556489760229
0.0004027689081234092
1.955198697736944e-05
2.1681478622981815e-05
2.6093773147003185e-05
3.1523264255356823e-05
3.788026983630694e-05
4.514880912130798e-05
5.3306685515303635e-05
6.231887377485498e-05
7.213628340571635e-05
8.26951992599371e-05
9.391721178880388e-05
0.00010570977716535926
0.00011796751111879895
0.00013057429124995333
0.00014340616817996827
0.00015633502813018567
0.00016923284722060233
0.00018197628627095714
0.0001944512671694101
0.00020655712231379726
0.00021820996989665114
0.00022934506607941258
0.00023991818027249004
0.00024990612662502247
0.0002593067687942638
0.00026813872404012545
0.0002764409398416466
0.0002842721875345383
0.00029171052170841766
0.00029885271869938305
0.0003058137975407853
0.00031272671328861246
0.00031974232731635645
0.0003270297207159985
0.0003347768552408873
0.00034319153824868316
0.0003525024552453013
0.00036295827833478033
0.0003747989450192841
0.0003878390493594985
0.0003956285762383412
1.7729190473707342e-05
1.9885516502445086e-05
2.4396408549161652e-05
3.000264437694726e-05
3.660905544528904e-05
4.419378581921619e-05
5.272895669781251e-05
6.217370714588993e-05
7.247248835425122e-05
8.355404161317218e-05
9.533095653203688e-05
0.00010770000979534122
0.00012054344314141461
0.00013373127775235546
0.00014712463987401502
0.00016057998881642397
0.00017395399910028703
0.00018710876511578403
0.00019991691150386687
0.00021226621279469088
0.00022406335469378767
0.00023523664806326643
0.0002457376270934669
0.0002555416806801445
0.0002646479054705656
0.00027307844311037446
0.0002808775163154125
0.0002881103510437462
0.0002948621138576106
0.0003012370075874917
0.0003073576269949438
0.0003133646945036531
0.00031941725514774013
0.00032569337745826825
0.0003323913703112112
0.0003397314441735239
0.00034795758833432237
0.0003573377716717169
0.0003681378112744612
0.000380226491627114
0.000387520713850305
1.5756085157820556e-05
1.7939162072924104e-05
2.255408478279664e-05
2.835045334267523e-05
3.5227059523991774e-05
4.315602140237792e-05
5.2104072962819666e-05
6.202499005960503e-05
7.28571459220239e-05
8.452177121570821e-05
9.692193223734792e-05
0.00010994250630482304
0.00012345139188455024
0.00013730206828428234
0.00015133747716339726
0.00016539503263908846
0.00017931242707912998
0.00019293378021490725
0.00020611563033583855
0.0002187322841227063
0.0002306801155644191
0.0002418806073321758
0.00025228203004458
0.0002618599088438917
0.0002706164752996232
0.0002785794150196182
0.00028580021194285856
0.0002923523568000534
0.0002983296991164593
0.00030384508326370156
0.00030902949367918987
0.00031403178324181005
0.0003190190959765239
0.0003241780147049623
0.00032971642122041513
0.00033586599915415885
0.00034288515061662217
0.00035106050975588924
0.0003606839366073895
0.0003716833774862617
0.0003784046638819191
1.3662870962285956e-05
1.586884631341118e-05
2.0586510798094607e-05
2.6579519802612267e-05
3.374040594292632e-05
4.203552374037801e-05
5.142705696791228e-05
6.186449276241818e-05
7.328105066632048e-05
8.559086834006686e-05
9.868709251276794e-05
0.00011244129259863583
0.00012670453618697486
0.00014131028257904083
0.00015607903350637052
0.00017082448427108203
0.00018536067316907848
0.0001995095353354227
0.00021310818271892584
0.0002260152789574958
0.0002381160395632326
0.00024932554569253375
0.0002595903370060445
0.0002688884074988505
0.0002772279336363724
0.0002846451099270341
0.0002912015228743244
0.0002969814612266333
0.0003020894853584176
0.0003066485431400869
0.0003107988132734537
0.0003146974315037086
0.0003185191625716315
0.00032245806447450903
0.00032673011301059606
0.00033157672735094525
0.0003372689264903955
0.00034411043911959915
0.0003524183555313481
0.0003621841450542364
0.00036824965829154033
1.1492639897768898e-05
1.3711922519085216e-05
1.852071083442504e-05
2.4706231259214005e-05
3.215511015409258e-05
4.082876762257963e-05
5.0686427015795596e-05
6.167519723213277e-05
7.372483723761734e-05
8.674335989430692e-05
0.00010061378213549959
0.0001151927039558682
0.00013031116287036653
0.00014577799384478182
0.0001613856179224724
0.00017691782684887947
0.00019215891694700931
0.0002069032726572228
0.0002209644736952429
0.00023418308571473962
0.0002464324910851296
0.00025762241751355215
0.00026770014370473187
0.0002766496392900127
0.0002844890774429059
0.0002912673347206666
0.00029705999570010805
0.00030196547206591876
0.00030610160207657694
0.00030960311961166626
0.0003126201718646989
0.00031531804778411036
0.00031787816383633594
0.00032050033830951954
0.00032340632633730927
0.00032684454573848567
0.00033109578261488875
0.00033647817457259604
0.00034333217939571916
0.0003517162724489465
0.0003570394220207116
9.303086657794002e-06
1.1517894599146526e-05
1.6391360613501716e-05
2.2750025401401703e-05
3.0475734806744584e-05
3.952654508864355e-05
4.986129533184668e-05
6.142778278646875e-05
7.415515099632311e-05
8.794704638493055e-05
0.00010267643092130228
0.0001181829224844319
0.00013427332873615103
0.00015072569285757445
0.00016729671013527992
0.00018373195172376937
0.00019977786947692768
0.00021519432059675513
0.00022976626628474437
0.00024331344374338773
0.00025569718096109294
0.00026682394932998703
0.00027664573128128895
0.0002851576657256146
0.0002923937140024074
0.00029842114655514345
0.000303334712525904
0.00030725118184554386
0.00031030475966903543
0.0003126438163310611
0.00031442909328458646
0.000315833496179301
0.0003170435166225406
0.000318262229648285
0.00031971387657496144
0.00032164997446001406
0.000324356856515784
0.00032816321044564845
0.0003334297178241128
0.00034028458365302163
0.00034477726755298795
7.1671866751429756e-06
9.34869426486301e-06
1.4240402482714126e-05
2.0732328296813787e-05
2.8703730087448643e-05
3.811147706720138e-05
4.891792282263732e-05
6.107650848273965e-05
7.452021394385438e-05
8.915121244743389e-05
0.00010483289598544295
0.00012138544113576043
0.00013858585623011889
0.000156172989811646
0.00017385735600467442
0.00019133491713194218
0.00020830333322357738
0.00022447876044961272
0.0002396111971633167
0.0002534966828357194
0.0002659851711217212
0.00027698371582312095
0.00028645523357230236
0.00029441369634091726
0.00030091695095098574
0.00030605838086029665
0.0003099585459922924
0.0003127577600077236
0.0003146101208457619
0.0003156794870627444
0.0003161374554593922
0.0003161634084255249
0.00031594654104519915
0.0003156897901463995
0.0003156155792978833
0.0003159733840767098
0.00031704922877488686
0.00031917628287267207
0.00032273198516092656
0.0003279155497839119
0.0003314909148293654
5.172400816823499e-06
7.277465062586791e-06
1.2115456444753767e-05
1.8675535729553096e-05
2.6835930624348613e-05
3.6555146822401904e-05
4.780589670528741e-05
6.055475398323574e-05
7.474511657966543e-05
9.028212800085681e-05
0.00010702076645327178
0.00012475880636278786
0.00014323604653792394
0.0001621406412787893
0.0001811224251613988
0.00019981197885437715
0.00021784318549608503
0.00023487629910287183
0.00025061850306635336
0.00026483940925157496
0.000277379971858525
0.0002881544913739554
0.0002971464716499212
0.000304399871871164
0.00031000765024720054
0.0003140994481251962
0.00031682995867288676
0.0003183690833368233
0.00031889453762143897
0.00031858716345554793
0.0003176289682288854
0.0003162037275952217
0.00031449995058932556
0.00031271598782193707
0.0003110671589178557
0.00030979483363542844
0.0003091775068914602
0.0003095441405732307
0.00031127959387994595
0.00031466178357836245
0.0003172389990734241
3.4151920250682388e-06
5.384539236989245e-06
1.0069527527703852e-05
1.6602874626538682e-05
2.4861815848555354e-05
3.4814662403013336e-05
4.645446095905671e-05
5.977105995648372e-05
7.472763585503387e-05
9.123902197755426e-05
0.0001091541798609692
0.0001282451337004086
0.000148204709222463
0.00016865457263031558
0.00018916360137589383
0.00020927487552766506
0.00022853771696893527
0.0002465401336238311
0.0002629368537490424
0.00027746914433718676
0.00028997435587838733
0.000300385228457245
0.0003087206331396337
0.00031507056666526205
0.00031957837784096744
0.00032242300836866824
0.00032380323786027824
0.00032392516958634613
0.00032299351370246776
0.00032120668068955516
0.000318755373012711
0.00031582427857805833
0.00031259642261485424
0.00030925985691255414
0.00030601646544685797
0.0003030927717848686
0.0003007528272473258
0.00029931207957614763
0.0002991492815138168
0.0003006032814602111
0.0003021055489317165
2.0083923511638467e-06
3.7594146623222863e-06
8.160281919160303e-06
1.4533494145479648e-05
2.2761939794726647e-05
3.283449506381726e-05
4.47756934222588e-05
5.861247727337644e-05
7.434112000112645e-05
9.189657333837972e-05
0.00011112655910003986
0.00013177415930271986
0.00015347267857735054
0.00017575562063512466
0.00019808234189438916
0.00021987700443619587
0.0002405751680959884
0.0002596705065993736
0.00027675374016458015
0.000291537956981431
0.0003038676647450357
0.000313712493743435
0.00032114912519350727
0.00032633640148146406
0.0003294884346332625
0.00033084962896413075
0.0003306740501575485
0.000329210369205784
0.0003266924099874806
0.00032333488946252793
0.0003193334328020815
0.0003148681325510338
0.0003101098973411753
0.00030522916346841395
0.00030040667693355595
0.00029584643537614535
0.0002917907087337424
0.00028853766890083176
0.00028645040459118716
0.00028591900587031664
0.00028627286689680387
2.104435566683758e-05
3.119301407295334e-05
5.7788371638452186e-05
0.00011378367718248549
0.00013619803198899866
0.0001842023248532325
0.0002085257036289026
0.00025425528620226983
0.00027435064105552006
0.00030668968540650685
0.00031851469235771635
0.00032744012569611895
0.00033363018471240245
0.00033733750899530494
0.000338865133569215
0.00033853377149531546
0.0003069556437643554
0.0003006790151586444
0.00027788933219376693
0.00027404015429059855
0.00027092062908838757
1.0903354867885141e-06
2.6484279412559394e-06
6.739900586404347e-06
1.2898872969939032e-05
4.3415269149088674e-05
7.435279020583349e-05
9.306960428740631e-05
0.00015986546372563987
0.00023211021601595756
0.00029192784828074874
0.00033665701954822147
0.00033352503923841383
0.00032939600436247753
0.00032449386012942604
0.0003190110540579235
0.0003131147348424924
0.00029443741743900647
0.00028840562115446986
0.0002827981494306801
0.00027166477303348214
6.7153317941811e-07
1.9888226327803777e-06
5.703228738382157e-06
1.1550234803900869e-05
1.9449007657597687e-05
2.944000357819317e-05
4.162777467840855e-05
5.6132163590757074e-05
7.303558071570859e-05
9.233188671318724e-05
0.00011388011855362898
0.0001373703934959085
0.00016231015924244926
0.00018803803404422948
0.00021376801133318903
0.0002386597516648306
0.0002619032590720252
0.00028280118855875683
0.00030083256053569903
0.0003156865465681279
0.00032726395523452223
0.00033565131485606815
0.0003410776631350087
0.0003438649114327006
0.0003443809319440378
0.00034300102161679245
0.00034008030033510415