# vtk DataFile Version 2.0
time_10.vtk
ASCII
DATASET UNSTRUCTURED_GRID
POINTS   4141  float 
6.186432884351113e-05         -1.9404042319535894e-17       0.0                           
0.2500000000000018            5.911401732969405e-05         0.0                           
0.5000575032487156            -7.326252488428181e-18        0.0                           
0.75                          5.3746262122523614e-05        0.0                           
1.000051578787911             -6.55968670806472e-18         0.0                           
1.25                          4.662572997197999e-05         0.0                           
1.5000438296735268            -2.428795005462638e-17        0.0                           
1.75                          3.758679302948348e-05         0.0                           
2.0000341411064837            6.37334392105106e-17          0.0                           
2.25                          2.6618737070894317e-05        0.0                           
2.500022555274955             -2.1602884495597185e-20       0.0                           
2.749999999999997             1.3878525527595502e-05        0.0                           
3.0000093060311177            1.0952595534362257e-16        0.0                           
3.25                          7.050574212273466e-17         0.0                           
3.499994432484444             6.662602385818846e-17         0.0                           
3.75                          -1.6677274387781257e-05       0.0                           
3.9999776538427922            6.255059536520962e-17         0.0                           
4.25                          -3.397542919347863e-05        0.0                           
4.499960067213803             9.258431998905964e-17         0.0                           
4.75                          -5.211863830652546e-05        0.0                           
4.999941656457521             -5.287294341242111e-17        0.0                           
5.25                          -7.105872888764456e-05        0.0                           
5.499922445443942             -2.855331428526883e-16        0.0                           
5.75                          -9.085005347340707e-05        0.0                           
5.999902333866632             1.4837764078355876e-16        0.0                           
6.25                          -0.00011168897910373452       0.0                           
6.499881077927152             5.276465154056252e-16         0.0                           
6.75                          6.164132153357035e-05         0.0                           
7.000060342493469             3.828744562108285e-06         0.0                           
7.250004235549508             5.7286856905013696e-05        0.0                           
7.500055502828263             5.11155670222967e-06          0.0                           
7.750005576482468             5.136490347489226e-05         0.0                           
8.000048993028644             6.5477696999927435e-06        0.0                           
8.250007048766108             4.361231876390062e-05         0.0                           
8.50004059676919              8.067722491498709e-06         0.0                           
8.750008580244641             3.391292406394111e-05         0.0                           
9.00003024935473              9.59832911487752e-06          0.0                           
9.250010098954194             2.2304437099817484e-05        0.0                           
9.500018038513673             1.1071448869270659e-05        0.0                           
9.750011538263148             8.96505487613985e-06          0.0                           
10.000004154881609            1.2421526550174066e-05        0.0                           
1.295131410922218e-05         0.29999393073423986           0.0                           
0.2499885369311235            0.30001386249155126           0.0                           
0.5000142501756902            0.29997734141386045           0.0                           
0.7499715787694902            0.30001500510684836           0.0                           
1.0000153726767942            0.299959756522923             0.0                           
1.2499537058638788            0.3000160930653952            0.0                           
1.5000164494631454            0.29994133954527996           0.0                           
1.7499350252838914            0.3000171659126459            0.0                           
2.0000175310452004            0.299922125496652             0.0                           
2.2499155309286496            0.3000182885431105            0.0                           
2.5000186863248333            0.29990201595006777           0.0                           
2.7498950755323346            0.3000195329457167            0.0                           
3.000019986527864             0.2998807664762807            0.0                           
3.249873368645965             0.3000209644907183            0.0                           
3.5000068755818026            0.30005968067482414           0.0                           
3.750058240711665             0.3000084586501974            0.0                           
4.0000093167577555            0.3000548577342782            0.0                           
4.2500528896602345            0.3000111459925264            0.0                           
4.500012107449212             0.30004835011299325           0.0                           
4.75004576402054              0.30001409754717434           0.0                           
5.0000151151697665            0.30003993700712944           0.0                           
5.250036692955003             0.3000171681783399            0.0                           
5.50001819303602              0.300029549634885             0.0                           
5.7500256576569875            0.3000202151123745            0.0                           
6.00002120375091              0.3000172600637319            0.0                           
6.250012765480152             0.3000231207188261            0.0                           
6.500024049884078             0.3000031901535995            0.0                           
6.749998142888246             0.3000259193377598            0.0                           
7.00002682839179              0.29998757517984675           0.0                           
7.24998206473813              0.30002848657980374           0.0                           
7.500029260630913             0.2999706592353623            0.0                           
7.74996479194132              0.3000307512528675            0.0                           
8.00003147580115              0.2999527686743683            0.0                           
8.249946622263392             0.3000329031837033            0.0                           
8.500033615104755             0.2999340704073781            0.0                           
8.749927663741735             0.3000350607009358            0.0                           
9.000035805166405             0.299914571679426             0.0                           
9.249907873588207             0.3000373649031867            0.0                           
9.500038190915891             0.29989412733005943           0.0                           
9.749887055417647             0.3000399601431395            0.0                           
10.000040912092519            0.29987244288383214           0.0                           
5.985531157026455e-05         0.600010276874657             0.0                           
0.2500114312473168            0.600057148194127             0.0                           
0.5000555545712297            0.6000139476724927            0.0                           
0.7500152982678066            0.6000518184890825            0.0                           
1.0000496535005863            0.6000181489662681            0.0                           
1.2500196332805533            0.6000446872140807            0.0                           
1.50004187476604              0.6000226784479047            0.0                           
1.7500242226623774            0.6000355779305037            0.0                           
2.000032093774709             0.6000273142991134            0.0                           
2.2500288469151886            0.6000244668128074            0.0                           
2.5000203329607507            0.6000318539183407            0.0                           
2.7500333190486494            0.6000114514958149            0.0                           
3.0000067156255574            0.6000361683223717            0.0                           
3.2500375574496707            0.5999967130766225            0.0                           
3.499991476293359             0.6000402421610995            0.0                           
3.7500415123486963            0.5999805698515408            0.0                           
3.9999749159557494            0.6000439010072058            0.0                           
4.250045036533224             0.5999632619861585            0.0                           
4.499957282208227             0.6000472299320362            0.0                           
4.750048301225788             0.5999450513003904            0.0                           
4.999938807708911             0.6000504282655084            0.0                           
5.250051499348188             0.5999260681867491            0.0                           
5.499919567786463             0.6000536974422468            0.0                           
5.750054841268388             0.5999062792039428            0.0                           
5.99989947434178              0.6000572600236891            0.0                           
6.250058550704958             0.5998854873122382            0.0                           
[...]
POINT_DATA  4141
SCALARS Con float 1
LOOKUP_TABLE default
0.0003830483381956653
0.0004331225738138063
0.0005296387314308232
0.0006443953187436349
0.0007763299640130127
0.000926152473132731
0.001094438428373297
0.0012814660130154685
0.00148718477516908
0.0017112049950852152
0.0019527991137463804
0.00221091350119743
0.002484188005683484
0.002770978658083206
0.003069375506278872
0.0033772019341319153
0.003691983680937664
0.004010929391400331
0.004331627517781305
0.004661652186104123
0.005059764117051513
0.0054609447825104355
0.0058033832873891815
0.0061292838667531555
0.00645902425317963
0.006791093321750438
0.007125475501197907
0.0074626211382954905
0.007803653610207821
0.00815022780446623
0.00850445587495664
0.00886884725752627
0.009246260057812788
0.009639856832911246
0.010053061414944877
0.010489514270689214
0.01095302047646328
0.011447424333762998
0.011975500082640771
0.01252340785364753
0.012840659698292544
0.0003883488206065983
0.0004396851751225504
0.0005382372524613957
0.0006552623959852859
0.0007896989517055031
0.000942216026347393
0.001113345741430839
0.0013033192816377227
0.00151203837773213
0.0017390674256902831
0.0019836384554155844
0.0022446680119309424
0.0025207852809641285
0.0028103713013551187
0.0031116119243144785
0.0034225805384327707
0.0037414026660481936
0.004066797767042103
0.004399480354708312
0.004750988176551419
0.005112799554468223
0.005471875311420712
0.005820853640778811
0.006162671862374741
0.0064988993017055215
0.006834309032149501
0.007170348904499443
0.007508393820689619
0.007849997593479319
0.00819706414050127
0.008551865735255001
0.008917029582582182
0.009295509590767023
0.009690551942095213
0.010105656653697226
0.010544535066779904
0.011011058316312746
0.011509132944747006
0.01204157024007737
0.012594740671883133
0.012915420430011868
0.0003838606888105448
0.0004350778379184533
0.0005336829693127935
0.0006510361889726892
0.0007860580632806592
0.0009394138417140004
0.0011116262679564232
0.001302915990001086
0.0015131749335035424
0.001741961390176926
0.0019885096779690896
0.0022517552648609286
0.0025303780714581105
0.0028228703658533566
0.00312764527428453
0.0034432201766881896
0.0037685755199425683
0.00410364513287437
0.004450844458229178
0.004799181312456739
0.005127087776979172
0.005457099931016029
0.005808998302988231
0.006159158436201768
0.006503117380168745
0.0068427264758318075
0.007180614606603143
0.007518859025920363
0.007859504998099344
0.008204756152204116
0.008557081553353576
0.008919250209137837
0.009294331786498664
0.009685678742967682
0.010096897683706228
0.010531812780309607
0.010994417717961565
0.011488750862154368
0.012017773351138605
0.012567882775275685
0.012886847070066211
0.0003760647700660176
0.00042721240446903514
0.0005259311846592848
0.0006438147886855057
0.0007797961759544218
0.0009345290231765669
0.0011085193158310378
0.0013019675636048553
0.001514744768846874
0.001746390284013486
0.0019961251975525516
0.0022628826763429304
0.002545358148420256
0.0028420838469439924
0.0031515320897384023
0.003472247354131242
0.003802914137811608
0.004142236437600521
0.004485458646372387
0.004824817573701094
0.005160458542195267
0.005495726527340769
0.005834868027034421
0.006179759327091591
0.006523258511147526
0.00686341359609177
0.007201035086366082
0.007537853997397085
0.007875919748221778
0.0082175540234402
0.008565363276210618
0.008922255313034064
0.009291440162889922
0.00967641741004679
0.010080952832842268
0.010509045999166336
0.01096488469215891
0.011452720994018763
0.011975744723995116
0.012520705850858087
0.012837146905532894
0.0003650798018041441
0.00041612547446520626
0.0005150202343497392
0.0006336622163291883
0.0007709988421849345
0.0009276672023434256
0.0011041469306336134
0.0013006062522400038
0.0015168796957692947
0.0017524671319097442
0.0020065475355890527
0.0022780079380851984
0.002565487670600676
0.002867434816527591
0.00318216317246692
0.0035078653937427296
0.0038425034370708103
0.00418312988816223
0.004525878519385922
0.004867660608041013
0.005206828441660226
0.005544922438559118
0.005883996407497067
0.006223718718971234
0.006563062502498964
0.006900137659711182
0.007234710569306876
0.007567792500378328
0.007901136839363117
0.008236987105928965
0.008577987400071058
0.00892714496543526
0.009287808794797608
0.009663648825019876
0.01005863090372794
0.010476985045774366
0.01092316093229286
0.011401704933893572
0.011916144120510633
0.012453753815932264
0.012766592175305956
0.0003508490477120048
0.0004017753555054622
0.0005009138315360873
0.0006205494462996954
0.0007596440973826425
0.0009188105506869562
0.0010984916490832004
0.0012988098636996974
0.0015195457347553568
0.0017601360693112527
0.0020196848505639247
0.002296986118917814
0.002590556329059317
0.002898669149684372
0.0032193757627217837
0.003550484184456751
0.003889437793570961
0.00423330213865331
0.004579073364690687
0.004924183260887384
0.0052673799084312165
0.005608494525674449
0.005947834565640804
0.006285497240195854
0.006620827161036854
0.00695327283860617
0.007282697495717777
0.007609835181554408
0.007936197206259986
0.008263914600457542
0.00859562722018645
0.008934419134634145
0.009283777512913361
0.009647561325855205
0.010029971873190833
0.010435520183681166
0.010868983556351975
0.011335285569525866
0.011838397683188602
0.012366275574116821
0.012674310005490505
0.0003333404569306087
0.00038413141466949537
0.00048358761246714927
0.0006044586959193078
0.0007457198795050489
0.0009079510568000436
0.001091547670082365
0.0012965734920151576
0.0015227386113059187
0.0017693951458931676
0.002035543555508189
0.0023198484304793637
0.0026206610763414976
0.0029360430696618927
0.0032637826747635656
0.0036013959565896815
0.003946151984224523
0.004295180248401502
0.004645704230160296
0.0049954195298055745
0.005342710514649839
0.005686697643723653
0.006026952936317049
0.0063631471440667685
0.006694984721791552
0.007022257131248272
0.007345172006944775
0.007664516530173355
0.007981749244757497
0.008298963245896187
0.008618820881221916
0.008944495873469006
0.009279628868340373
0.009628292108842022
0.009994958165037877
0.010384467926962394
0.01080198968354034
0.011252904068465498
0.011741723620290708
0.012257244868615846
0.012559145868908276
0.00031256181858858726
0.00036320024701055415
0.0004630469901927559
0.0005853961482267784
0.0007292331340905956
0.0008950960117785652
0.0010833232842242814
0.0012939094384422398
0.0015264812710315554
0.0017802898863220487
0.0020542117816156405
0.002346758675639867
0.0026560950390483867
0.002980061583640976
0.0033162040271738787
0.0036618163793652103
0.004014016904220957
0.004369880107353487
0.004726633473398017
0.005081860443355872
0.005433659703057684
0.00578066338920789
0.0061219491934412385
0.006456921779081282
0.006785238294282071
0.007106867941336257
0.00742219199608106
0.00773213179990026
0.008038212627776008
0.008342579607242868
0.008647973785482982
0.008957695769496609
0.009275570068405781
0.009605913756410872
0.009953508416150905
0.010323572190355842
0.010721724164897233
0.01115387637716587
0.011625177458574823
0.01212544315066243
0.01241972337479735
0.0002885896828632921
0.00033904957329282365
0.0004393461996411143
0.0005634048131414013
0.00071021644456173
0.0008802685226676147
0.0010738353196872968
0.0012908354389972807
0.0015308049762523279
0.0017928844364486192
0.0020758140178811077
0.0023779384198946477
0.0026972224475628826
0.0030312789181401083
0.003377412497004794
0.0037326859927515007
0.0040940180003379775
0.004458316563837278
0.004822637042820071
0.005184339758052298
0.005541204375548107
0.0058914825216787835
0.006233889131050069
0.006567567594273575
0.006892075257449019
0.007207402464541498
0.00751403143368711
0.007812997528799093
0.00810593802666384
0.008395110812389264
0.008683389913777408
0.008974246600880843
0.009271726106795454
0.009580425193801322
0.009905471875832348
0.01025250561149752
0.010627650758462743
0.011037419862778838
0.01148769071189987
0.011969486680346175
0.012254471707223278
0.000261601412408396
0.00031183643382385484
0.0004126088307178772
0.0005385770523868986
0.0006887322342439174
0.0008635032706168334
0.0010630964488523888
0.0012873534447016258
0.001535719044164821
0.0018072208322156783
0.0021004571457195293
0.002413596292011351
0.002744390411860324
0.0030902075366641096
0.0034480857006023774
0.003814813027432662
0.004187035806130852
0.00456139102593627
0.004934652195158596
0.0053038683949800675
0.005666477121825818
0.006020377098435933
0.006363963737278008
0.006696142337159063
0.007016337241036738
0.0073245119755402715
0.007621199200195908
0.00790753482152776
0.008185284071377346
0.008456854623204597
0.00872529590057486
0.008994289702698775
0.009268137380380756
0.009551747996688939
0.00985062904853038
0.01017087873125501
0.010519173033178213
0.010902685821307066
0.011328110619268379
0.011787874629123275
0.012061677509289883
0.00023191107833087627
0.00028183795092078374
0.0003830492226675
0.0005110658639107736
0.0006648735900509668
0.0008448367936704382
0.0010510951698491041
0.0012834197787259915
0.001541171808333921
0.001823271526538038
0.002128175816201831
0.002453869348051213
0.002797874670742984
0.0031572859671274204
0.003528830121626066
0.003908956807789393
0.004293955908481477
0.004680095932209406
0.005063771780835466
0.00544164709149363
0.005810776610993208
0.006168699710973096
0.006513503877260153
0.006843864395345133
0.007159070058054658
0.007459042572342578
0.007744353991207858
0.008016240909011943
0.008276613701388293
0.008528058858204488
0.008773835612643333
0.009017869740490117
0.009264748359239863
0.009519718683896
0.00978869201567799
0.010078251923009022
0.010395659954489525
0.010748799081093685
0.011145253616909604
0.011579054461339998
0.011839556318317802
0.00020000775192999796
0.00024948340904662805
0.00035099326152559547
0.00048109356686244027
0.0006387604980573789
0.0008242913527677078
0.0010377678830900679
0.0012789065912100477
0.001547003282469025
0.0018408859171720436
0.0021588767383217272
0.0024987710791710602
0.0028578401614200014
0.003232863896108011
0.003620197342792709
0.004015871208872654
0.004415722595499895
0.004815547687206056
0.005211264255594943
0.005599069951397545
0.005975583387377413
0.006337958903020533
0.006683971454425293
0.007012073498995254
0.007321428951981076
0.007611930479098027
0.007884205218138226
0.008139612518287041
0.008380236352383226
0.008608874801343936
0.008829029585674815
0.009044899192687292
0.009261378847438648
0.0094840698004896
0.00971929869926399
0.009974145659397079
0.010256474210130836
0.010574905572382748
0.010937972245505533
0.011341506993742433
0.011586346968817655
0.00016659321471653297
0.00021538500730294233
0.0003168962955182115
0.0004489560267389523
0.0006105300266537441
0.0008018512454460743
0.0010229622188540678
0.001273553931480373
0.0015528887125368063
0.001859729314022871
0.0021922783438519736
0.002548138387658102
0.0029243027835015004
0.003317184831994028
0.003722689715091768
0.004136328746038435
0.004553370423661044
0.0049690178276398395
0.005378598155769564
0.005777748754346628
0.006162585010928674
0.006529839195839567
0.006876964251324762
0.007202201870579445
0.007504618311409003
0.007784114001771049
0.00804141404571973
0.008278046544487433
0.008496315373676809
0.008699273237097323
0.008890700517222934
0.009075094563774292
0.009257673263915049
0.009444395234520116
0.009641997161434821
0.009858046409950603
0.01010100176535224
0.010380226964235646
0.010705235652153375
0.011073851750836711
0.011300430107275711
0.00013261447966172337
0.0001803629879449207
0.00028135493082824114
0.00041502009162808017
0.0005803189883187626
0.0007774308308087856
0.0010063912440640608
0.001266912000443555
0.001558272121484784
0.0018792125533813762
0.0022278426496011986
0.00260157276132266
0.002997086699840327
0.0034103645547020195
0.0038367614401314232
0.004271141416155841
0.00470805904579401
0.005141974852384953
0.005567486535954512
0.005979556038794961
0.006373713983219488
0.006746227047494846
0.007094219795825837
0.0074157488099013845
0.007709832686840847
0.007976445577197297
0.008216484379935232
0.008431720488862983
0.008624746601988698
0.008798928113755584
0.008958366944845505
0.009107884284183463
0.009253026648008011
0.009400097983072536
0.009556218331010951
0.00972940691318075
0.009928681462181016
0.010164121354088018
0.010446222664438546
0.010774972378539102
0.010980471368691463
9.928324036921649e-05
0.00014545867615653747
0.000245108163835376
0.00037971174923423945
0.0005482385151475614
0.0007508349437012729
0.0009875797734807262
0.001258274720830697
0.0015622904252108984
0.001898412095441794
0.0022646984764150124
0.0026583746485173755
0.003075777582898288
0.0035123690724112966
0.003962823846304753
0.004421192015655197
0.004881125640744511
0.00533615057209164
0.005779958708828456
0.006206693523644505
0.006611203621939104
0.006989244770418147
0.007337618955349239
0.007654247901914023
0.007938186463250266
0.008189587406161221
0.008409632484293293
0.008600446041489344
0.008765006320342245
0.008907067890737785
0.009031105656753288
0.009142288405924997
0.009246486934837417
0.009350319717347698
0.00946123687475046
0.009587640744235864
0.00973903504701121
0.009926149018958783
0.010160426029642173
0.010444160550915123
0.010625587581129367
6.807121025146646e-05
0.0001119262701539647
0.00020902242005762581
0.0003434936619024989
0.0005143422342493723
0.0007217154523618799
0.0009658070403842632
0.001246608312393142
0.0015636911979547957
0.0019159830398332914
0.002301558048687395
0.0027174733575537338
0.0031596755727396858
0.003622998676150217
0.004101264990379217
0.004587488928924519
0.005074169379633427
0.005553644143358552
0.006018470681562716
0.006461794240167054
0.0068776675486164835
0.007261294980188737
0.007609186478200816
0.007919219599361692
0.008190619769920431
0.008423877095634939
0.00862062251765606
0.008783486742320625
0.008915963263603851
0.009022293006994435
0.009107383593553925
0.00917677194352553
0.009236635334492684
0.009293853290657735
0.009356120990849951
0.00943211393719927
0.009531699138196037
0.009666146055387386
0.009847764258542401
0.010081274066389341
0.010235534859807348
4.066508900930702e-05
8.119140870432465e-05
0.00017405569795894715
0.0003068329117577032
0.00047859524862196753
0.0006895325038773977
0.000940052804267253
0.001230482172434295
0.0015607513899014711
0.0019300717460202592
0.002336632826425409
0.002777358100227576
0.0032477545590684624
0.003741886953284143
0.004252495647383324
0.004771259543624167
0.005289184848940138
0.005797080752139704
0.00628606899398912
0.006748069370457423
0.007176208768542068
0.007565115820003052
0.007911083002620865
0.008212098422172305
0.008467766539808621
0.008679148162642817
0.008848554608876352
0.008979329908803457
0.00907564970605896
0.00914235884813031
0.009184862151405623
0.009209076771856941
0.00922144965937628
0.009229040601170446
0.009239670099356
0.009262131596196203
0.009306470712121909
0.009384304693141223
0.009508709098615358
0.009686899767448465
0.009810895260302026
1.8866343250873145e-05
5.47623818696167e-05
0.0001411954649165523
0.00027017472985710507
0.00044085863274603506
0.000653526425026515
0.0009089569359345746
0.0012080156012072433
0.0015512112432891916
0.0019382409902199136
0.0023675592964530765
0.0028360192122480836
0.0033386367526565025
0.003868525879042984
0.004417036404796627
0.004974101100559269
0.005528766185776393
0.006069846934048328
0.006586627049756846
0.007069512865167099
0.007510563461913246
0.007903843376598678
0.00824557718129667
0.008534117815961334
0.008769765326667367
0.008954486728948944
0.009091590464126107
0.009185403564330135
0.009240988909496317
0.009263927936801983
0.009260182958817463
0.00923604458278746
0.009198163838153197
0.009153665658593288
0.009110339405094361
0.009076903902068638
0.009063345204105362
0.00908133377467979
0.00914439910530012
0.009262528970954911
0.009353319913680271
4.382488539695716e-06
3.408678260570997e-05
0.00011142010627702188
0.00023394113488867102
0.0004008676736603769
0.0006127046188619774
0.0008708135579959224
0.001176867468120251
0.0015322504923339004
0.0019374305164611184
0.0023913524010563438
0.002890912951815679
0.003430594295433648
0.004002330365527233
0.00459566396746398
0.00519821268999297
0.005796409716358608
0.006376430502628524
0.006925176864024671
0.0074311768793519865
0.007885279620271947
0.008281068515909444
0.008614974748027986
0.008886123525800552
0.009095982783883474
0.009247898445300435
0.009346598141823665
0.00939772966389902
0.009407480155298294
0.00938230174044415
0.009328752991197616
0.009253454457431873
0.009163150828329745
0.009064869933076636
0.008966170437472946
0.008875470941961944
0.008802458610679237
0.008758539277404406
0.008757213989553031
0.008810635016255303
0.00886541438021284
0.0
2.0427547014367853e-05
8.563541419094405e-05
0.00019843652483122836
0.0003582621207977605
0.0005659731786588687
0.0008237590647240832
0.0011344445159960892
0.0015006885566124018
0.001924135344141902
0.0024045632635454448
0.002939116830024354
0.003521732685611038
0.004142883231813173
0.004789741020122894
0.005446810467508139
0.006096984524163677
0.006722888621035098
0.007308300556352365
0.007839414966585898
0.0083057598187601
0.008700658759222423
0.009021233221896819
0.009268023877208266
0.009444359830128845
0.009555616236623083
0.00960848172471333
0.0096103234517067
0.00956869995866674
0.009491040376348564
0.009384486349982887
0.009255880824801789
0.00911188400973207
0.008959198689060503
0.008804892317344807
0.008656809872378313
0.008524071706157287
0.008417664916978729
0.008350761314502153
0.00833725738027869
0.00835317854267831
0.0003222849628195768
0.0005250023375863672
0.0010968922898976605
0.0024284456404157946
0.003002662702931287
0.0043112138632864175
0.0050181305864515306
0.006441302431430527
0.007114399905042073
0.00828665266791528
0.008758265383564745
0.009143475315541048
0.009440935448438884
0.009653466807233679
0.009787032741854771
0.009849642418465629
0.009039407655038597
0.00883656922100246
0.008080012013447747
0.007952684286398469
0.0078556028903845
1.2667403925158239e-06
1.4451740330104535e-05
6.757713232754426e-05
0.00017028820091716221
0.0007817639936006931
0.001474678441297168
0.0019182567066746085
0.0036340795420573297
0.00573533600093871
0.0077348947893913795
0.009850349160384323
0.009798445334320513
0.009702896625034357
0.009572014385612384
0.009413339358970218
0.009233699629344585
0.008631488820677055
0.008431168150771728
0.008243908979510961
0.007876811578031847
6.968357859166472e-06
1.4138814786102785e-05
5.5738741060411116e-05
0.0001481426637581677
0.0002908600133710993
0.0004856309594612417
0.0007365284926369504
0.001048984982491296
0.0014286091363096953
0.0018798835239788752
0.0024047715838170945
0.0030013598217203657
0.0036627408179939897
0.004376400143533819
0.005124358162081452
0.005884208663244369
0.006630998806951931
0.0073396624766449954
0.007987546154674573
0.008556528933852591
0.009034360702897369
0.00941506498993045
0.00969848770050888
0.0098892356695039
0.009995312097193518
0.010026727770569252
0.009994289542699751
0.009908674504194711
0.009779820619431582
0.009616611124312106
0.009426803462279868
0.009217147702219307
0.008993646159047736
0.008761920148690776
0.008527666150142256
0.008297197662530398
0.008078088644888421
0.007879918401493546
0.007715165215613743
0.007599220322765901
0.007555019706208302
1.4969681419632878e-05
1.5772118216531508e-05
4.6999180070897024e-05
0.00012982236674928917
0.00026377369595085047
0.00045088631787243964
0.0006960511921800077
0.0010058910010575363
0.0013874446224884703
0.0018466757824266169
0.002386830981410109
0.0030067733001126903
0.003699543871907824
0.004451495763660548
0.00524235199987849
0.006046411353514771
0.006834860288641
0.007578821743836344
0.00825251804713658
0.00883587249562851
0.009316053372458964
0.009687788689468084
0.009952604144793027
0.01011734644999122
0.01019241108645313
0.010190030310319205
0.010122853769013836
0.010002926311837444
0.009841068470988585
0.009646606152772548
0.009427372082808725
0.009189903274461184
0.008939773977929225
0.008682024314062045
0.008421664997688632
0.008164259819747886
0.00791658561209605
0.00768744679334133