# vtk DataFile Version 2.0
time_10.vtk
ASCII
DATASET UNSTRUCTURED_GRID
POINTS   4141  float 
8.82182054203714e-05          -2.538109126559468e-18        0.0                           
0.24999999999999983           8.390126705607789e-05         0.0                           
0.5000814383235052            1.660991451380932e-17         0.0                           
0.7500000000000001            7.581675587250625e-05         0.0                           
1.0000726293720819            4.160327654000366e-17         0.0                           
1.2499999999999998            6.544696874407657e-05         0.0                           
1.5000614376814811            -1.2476461869461787e-18       0.0                           
1.75                          5.256659759510999e-05         0.0                           
2.0000477059564825            8.814134341768147e-17         0.0                           
2.25                          3.7156221448763476e-05        0.0                           
2.5000314834818242            -1.826539986388397e-17        0.0                           
2.7500000000000013            1.9407326951240406e-05        0.0                           
3.000013049049664             -1.711218612349409e-17        0.0                           
3.25                          -3.309972095424487e-17        0.0                           
3.4999925235729576            -8.497310242757812e-17        0.0                           
3.75                          -2.255457703502334e-05        0.0                           
3.999969730998553             2.3017299152580192e-17        0.0                           
4.25                          -4.609498948779367e-05        0.0                           
4.499945800670624             3.2148359003883705e-17        0.0                           
4.75                          -7.076974452986862e-05        0.0                           
4.999920768927689             -2.649024082144276e-16        0.0                           
5.25                          -9.650840203343575e-05        0.0                           
5.4998946680597856            -4.3584067125521126e-17       0.0                           
5.75                          -0.00012338501144205444       0.0                           
5.999867364022055             -1.6580771578325024e-17       0.0                           
6.25                          -0.00015165663250286794       0.0                           
6.499838539878677             6.02454288094918e-17          0.0                           
6.75                          8.793227694707317e-05         0.0                           
7.0000858723252               6.014442281693896e-06         0.0                           
7.250006538289621             8.116132754252943e-05         0.0                           
7.500078473541663             7.670218784775273e-06         0.0                           
7.750008272587671             7.23557069096505e-05          0.0                           
8.00006890130475              9.533462806558163e-06         0.0                           
8.250010184748652             6.115925154736015e-05         0.0                           
8.500056862400195             1.1510567544504658e-05        0.0                           
8.750012177846013             4.741327490201198e-05         0.0                           
9.000042266946382             1.3503944593065251e-05        0.0                           
9.250014156392039             3.116319125380682e-05         0.0                           
9.500025225235813             1.542530344435054e-05         0.0                           
9.750016035938513             1.2635062172143393e-05        0.0                           
10.000005986993122            1.7197598262032018e-05        0.0                           
1.7856140127070103e-05        0.2999919482151521            0.0                           
0.24998458366547854           0.3000190199594151            0.0                           
0.5000195308563966            0.29996932943540694           0.0                           
0.7499614829621251            0.3000205234161475            0.0                           
1.0000210065615693            0.29994539485308575           0.0                           
1.2499371652483486            0.30002195469651916           0.0                           
1.5000224245980116            0.2999203531492442            0.0                           
1.7499117721800863            0.30002337086038733           0.0                           
2.000023853761103             0.2998942476897216            0.0                           
2.2498852920777246            0.30002485612194474           0.0                           
2.500025382367255             0.2998669462019408            0.0                           
2.749857529958077             0.30002650106850687           0.0                           
3.0000270993293716            0.299838130562517             0.0                           
3.249828110098693             0.30002838636624424           0.0                           
3.500011023962799             0.30008502429345957           0.0                           
3.750082782860379             0.3000130598502225            0.0                           
4.00001416761055              0.3000776480474463            0.0                           
4.250074720769039             0.3000165359475315            0.0                           
4.500017783534635             0.3000680784639985            0.0                           
4.750064343641112             0.30002036984766633           0.0                           
5.000021693734293             0.3000560165992917            0.0                           
5.25005142011528              0.3000243662470093            0.0                           
5.500025700863357             0.3000413689848538            0.0                           
5.7500359240965375            0.3000283347938056            0.0                           
6.000029622975619             0.3000242325079016            0.0                           
6.250018002058052             0.3000321213625359            0.0                           
6.50003333099175              0.30000479375136074           0.0                           
6.749997854647631             0.30003573588091953           0.0                           
7.000036901304919             0.2999833698583043            0.0                           
7.249975840395969             0.30003905484413174           0.0                           
7.5000400682706445            0.2999602887741814            0.0                           
7.749952298534835             0.3000420238601961            0.0                           
8.00004297620988              0.29993593809989755           0.0                           
8.249927579621685             0.3000448562490147            0.0                           
8.500045795826855             0.2999105183471329            0.0                           
8.749901813418763             0.3000477067018645            0.0                           
9.000048691729878             0.299884031385902             0.0                           
9.249874937454045             0.3000507555210747            0.0                           
9.500051847643183             0.29985628371835044           0.0                           
9.749846693169061             0.3000541829853457            0.0                           
10.000055436858082            0.2998268931523899            0.0                           
8.564235027884014e-05         0.6000164867470072            0.0                           
0.2500179692172103            0.6000813837147626            0.0                           
0.5000789438920115            0.6000212143215382            0.0                           
0.7500229617538986            0.6000733502206359            0.0                           
1.000070165850685             0.6000266590511981            0.0                           
1.2500285876100428            0.6000629646669889            0.0                           
1.500058932839376             0.6000325486433322            0.0                           
1.7500345586950985            0.6000499890326909            0.0                           
2.000045077579101             0.600038584164928             0.0                           
2.2500405798593612            0.6000343937483273            0.0                           
2.500028634095726             0.6000444948877466            0.0                           
2.750046401621907             0.6000163191054753            0.0                           
3.000009781698401             0.6000501028869752            0.0                           
3.2500519006700572            0.5999960222795507            0.0                           
3.499988836540257             0.6000553677371626            0.0                           
3.750057013374176             0.5999739081986345            0.0                           
3.9999661874512293            0.6000601257233827            0.0                           
4.250061611447356             0.5999503005828142            0.0                           
4.499942158683452             0.6000644891523012            0.0                           
4.750065898225938             0.599925518981198             0.0                           
4.999917029998073             0.6000687023862036            0.0                           
5.250070117205543             0.5998997169107584            0.0                           
5.4998908863511575            0.6000730243333039            0.0                           
5.750074537862396             0.5998728415405261            0.0                           
5.999863605323599             0.6000777367485228            0.0                           
6.250079441577383             0.599844632152725             0.0                           
[...]
POINT_DATA  4141
SCALARS Con float 1
LOOKUP_TABLE default
0.000977254540395162
0.0010741172600323564
0.0012663182995533034
0.0014922855460402164
0.0017490932790376443
0.00203771470004567
0.0023589254614557087
0.0027129715608540683
0.0030995182193293918
0.003517639934619148
0.003965833537873199
0.004442051142420591
0.004943748861565531
0.005467944229777645
0.00601127107613149
0.006570011472897539
0.007140103387307008
0.0077170839930161975
0.00829754358500777
0.008888374259144308
0.009564274390730472
0.010248004009803842
0.01086197410538788
0.011445720676706175
0.012034049640450448
0.012624949303892805
0.013219060724459492
0.013817596633879613
0.014422796510546326
0.015037717817958771
0.015666127388767683
0.016312405363971577
0.016981463193835897
0.017678666307791618
0.01840975720752211
0.01918077565484681
0.019997967560422988
0.020867577466499716
0.021794012898386353
0.0227532544993291
0.02330460815745787
0.0009967696659410642
0.0010960788672667238
0.0012923431002743893
0.0015227209567081788
0.001784296611029042
0.0020779643366855803
0.002404419190462178
0.0027638212390132286
0.00315574880293545
0.00357919263605444
0.004032574108607605
0.004513785193348555
0.005020248449732427
0.005548995548529452
0.006096765803356031
0.006660145693745184
0.00723579780721912
0.007821279018266509
0.008416271283546904
0.009038960535896805
0.009674383900174787
0.01030154251596415
0.010913205404971925
0.011519358630610039
0.012116272091189487
0.012711598423677674
0.013307786074081729
0.01390738271888655
0.014513251636826348
0.01512882495773525
0.015758118095152263
0.016405699429934306
0.017076636708731004
0.017776433411768527
0.01851095840067078
0.019286369081268538
0.020109020863812707
0.02098526102411199
0.021919549462965704
0.02288820368891032
0.023445609396735147
0.0009871868090594064
0.0010863459650632076
0.0012828492549491807
0.001514019480228142
0.0017768844038184412
0.0020723216364983052
0.002400997355996287
0.0027630390590732703
0.0031579915365830035
0.003584815428671122
0.00404191206170719
0.004527174867382952
0.005038070187543432
0.005571754906659426
0.006125251672809066
0.006695724021749724
0.007281008698000679
0.007880213175896779
0.008496639779179232
0.00911173644491619
0.00970093907094339
0.010293924738306048
0.010911892219655656
0.011525995591028853
0.012132298473264677
0.012732323391801829
0.01333004349939717
0.013928831620335124
0.0145321940334271
0.015143967453052359
0.01576844585777132
0.01641040958363153
0.017075109615822124
0.017768226057975716
0.01849581120292188
0.01926422094922397
0.020080028789491573
0.020949815804582772
0.02187829383452797
0.022841744405715667
0.023396180586350034
0.0009704527307127854
0.001069599317832385
0.001266565751555755
0.001499025372490426
0.0017640101839741676
0.002062358729663203
0.002394687817174357
0.002761067165254854
0.0031609796680855547
0.0035933243031203836
0.004056446628344102
0.0045481979053699365
0.005066025927458327
0.005607102627016987
0.006168492608282565
0.0067473643932185225
0.007341093767717298
0.007947223033967596
0.008558025915632072
0.009163583619070164
0.009763339380746071
0.010361430875589835
0.010963433532669166
0.011571026293163762
0.012175451011060512
0.012774852735237218
0.013370606532189156
0.01396562922494943
0.01456341948517859
0.015167982139127074
0.015783817739676582
0.016415926056009847
0.017069789390748314
0.01775133781827083
0.018466899367976724
0.01922313683420119
0.020026963863411996
0.020885332274588
0.021803340871664044
0.022757850475572196
0.02330793467063635
0.0009468179319722247
0.0010459444674925519
0.0012436054166055264
0.0014779198479604528
0.0017459167885751623
0.002048380634297484
0.0023858545762659796
0.0027583217205997177
0.003165168468648012
0.0036051898518947904
0.004076621355400066
0.004577197024612878
0.005104233113954553
0.005654731841570548
0.006225488185470056
0.006813134144939454
0.0074140288080363015
0.00802327259696523
0.008635113732670138
0.009244737893382291
0.009849715369067188
0.01045170331832077
0.01105301273433225
0.011653242591925203
0.012251166987282118
0.012844746702812035
0.013434263897023095
0.014021702525235033
0.014610197553550882
0.01520367719018982
0.015806729992021727
0.0164245373104145
0.017062827735388413
0.01772783188022987
0.018426230554427204
0.019165092271232014
0.01995178977445403
0.0207937878128853
0.021696769451516534
0.02263853175981274
0.023182479743921344
0.0009160960532034178
0.0010152300831254351
0.0012138435339629544
0.0014506089481020595
0.0017225439149566501
0.0020303578001662865
0.0023744946810449388
0.002754820185436123
0.0031705867889016506
0.0036204389154742573
0.004102441863485311
0.00461413269092714
0.005152588804715605
0.005714503537235439
0.00629624375208808
0.0068938546368806615
0.007502917809419958
0.008118626809418246
0.008736168302962427
0.009351542164500414
0.00996256224145878
0.010568617996140419
0.011169870783669598
0.011766364156498345
0.012357426606921169
0.012942707173141053
0.013522585767301675
0.014098747970881115
0.014674047004088536
0.015252306261747057
0.01583816084210542
0.016436958447150266
0.01705468941695569
0.017697928812989542
0.018373779595805
0.019089809694394114
0.0198539709919973
0.020674393749727817
0.02155755136144162
0.022482434760187478
0.0230181449050941
0.0008781204147466329
0.0009773017760462196
0.0011771585058576763
0.0014170070246552723
0.0016938422945332943
0.0020082765845933544
0.0023606288489433956
0.0027506169998470636
0.003177323467538615
0.0036391978507024966
0.00413408063348052
0.004659245658203147
0.005211456922495512
0.005787030645597815
0.006381890818371736
0.006991605228164208
0.007611465689780982
0.008236663456358907
0.008862657811455042
0.009485666095466196
0.010102978161452614
0.010712997637020478
0.01131489420680017
0.011908176417346232
0.012492607855711359
0.01306828662941407
0.013636049206529641
0.014197673359352216
0.01475598980825662
0.015314825128203535
0.015878908903668342
0.01645378582932283
0.017045743794226857
0.017661752536668573
0.018309406211404703
0.018996863137778035
0.019732770538115726
0.020526069686304556
0.021384190366432316
0.02228757628160174
0.022812707548095664
0.0008327737028577822
0.0009320525305087104
0.0011334675121923692
0.0013770619204641417
0.0016597925302865293
0.0019821514915157605
0.002344308097341234
0.0027458056298776666
0.0031855253527687854
0.0036616848966059597
0.004171855902226196
0.004712999801224084
0.005281519642864151
0.005873324693137297
0.006483905731073023
0.007108433915808414
0.007741902868183674
0.008379348102118888
0.00901613594261096
0.00964825899444912
0.01027255168577327
0.010886730276696378
0.011489292034094574
0.01207937672584243
0.012656681500029349
0.013221533225724271
0.01377501093724915
0.014319099714882209
0.014856764396526117
0.01539196197798837
0.015929601248156927
0.016475485441620544
0.01703625420976424
0.017619330050158512
0.018232867696834142
0.018885701996636476
0.019587282707586147
0.020347491797701976
0.021174875859796754
0.022051634325690427
0.02256354967580654
0.0007800434716172821
0.0008794693029972982
0.0010827644019963919
0.00133078141686383
0.0016204199077591577
0.0019520288183908082
0.0023256065946937942
0.0027405008729136262
0.0031953683742568127
0.003688166800423844
0.004216165461770644
0.004775975751309275
0.005363602646908435
0.00597451830170857
0.006603761484930372
0.007246069485849437
0.007896052639086649
0.008548411949100419
0.009198183249076081
0.009840969417877968
0.010473111023251273
0.011091770170675
0.011694934661120945
0.0122813848129166
0.012850680139740054
0.013403182753528005
0.013940125400899887
0.014463681061521435
0.014977016083614637
0.01548430543793812
0.015990718404246134
0.016502385346111235
0.01702635836761226
0.017570572409278486
0.018143808193071723
0.018755654404687704
0.019416458025037015
0.020137160086140585
0.02092758183426693
0.021771999780719472
0.02226771541287811
0.0007200861257877011
0.0008196898368399097
0.001025162048036561
0.0012782604992458532
0.0015758060316594603
0.001917982723313777
0.002304602640009342
0.0027348053433336526
0.003207009676570434
0.003718895542667109
0.0042674050441331764
0.004848766861354745
0.005458547991896604
0.006091736553442158
0.006742859018493511
0.007406134783024331
0.008075667278137213
0.008745663858913172
0.009410665934062725
0.010065762573941945
0.01070676169199459
0.011330303712707936
0.01193392163443742
0.012516067366847737
0.013076126867384753
0.013614443099338699
0.014132347043117399
0.014632191566234569
0.015117374784421317
0.015592347643020936
0.016062604876970345
0.016534665729617048
0.017016050841766345
0.017515260656693756
0.01804175690292962
0.01860594518225288
0.019219148042728135
0.019893468186253507
0.020640147310343613
0.02144587428980482
0.021922016742175223
0.0006533016554306035
0.0007530673947175329
0.0009609386593820996
0.0012197078611836316
0.0015260951461720086
0.0018801016372519636
0.002281346238698601
0.0027287599057229457
0.0032205230230073103
0.0037540310982678315
0.004325881499150228
0.004931888238439055
0.00556713159198896
0.0062260476123328825
0.006902560141066797
0.007590254404641454
0.00828258630835915
0.008973115178508143
0.009655741778347137
0.010324930384221236
0.01097589606570023
0.011604746209851927
0.012208575929785394
0.012785525839347708
0.013334815309902999
0.01385676195075794
0.014352794410359393
0.014825459097912361
0.01527842054167803
0.015716454351126664
0.016145434966965713
0.016572322006688768
0.017005149916984093
0.01745302422742219
0.017926125445132047
0.018435718353393752
0.018994156027685664
0.01961478134870456
0.020310381107771825
0.021070397823931112
0.021523173740124343
0.0005804176023822808
0.0006802420856020699
0.00089058578463624
0.001155469152306571
0.001471492370490636
0.0018384622828285218
0.0022558108224949064
0.002722276219987713
0.0032358164806156314
0.003793549835614128
0.004391719137074181
0.005025690865676513
0.005689998441776872
0.006378436305133084
0.007084206704200792
0.007800115676575473
0.008518808574443372
0.009233029737088044
0.009935886743558045
0.010621098699085087
0.01128321088466866
0.011917764399550591
0.012521417225598326
0.013092020421629848
0.013628657437134274
0.014131656334776163
0.014602583563690041
0.015044226226512209
0.015460568313913339
0.01585676565644321
0.016239124391660406
0.01661508787561083
0.01699323617771281
0.017383300810041226
0.017796194955382632
0.01824405628594465
0.018740291341460838
0.019299527799860248
0.019936190078008537
0.02064281194979471
0.021067996213130047
0.0005025783959892408
0.0006022149913916657
0.000814854270153982
0.0010860432538852872
0.0014122503116390823
0.0017930879012491962
0.002227825919978162
0.0027150483487513445
0.0032525292283583254
0.0038371346344112634
0.0044647530195136165
0.0051302693644865675
0.0058275966433918806
0.006549773111408547
0.007289127225724392
0.008037504330641399
0.008786541726474433
0.009527972477961978
0.010253934591050328
0.01095726202589605
0.011631737292188688
0.012272291832587146
0.01287514797223533
0.013437903761157312
0.01395956772360815
0.014440554074512621
0.014882650391113325
0.015288969370282407
0.015663895618221263
0.01601303682788789
0.016343187675629766
0.016662313059418635
0.01697955569308528
0.01730527069022346
0.01765108695278543
0.018029991641451932
0.018456425985772858
0.01894630241000151
0.019515731431719006
0.020160659121687352
0.020553608131502463
0.00042143300048939664
0.0005204182902274942
0.0007347923249880367
0.0010120867227534046
0.0013486400937622993
0.0017438875514953522
0.002196987979847564
0.0027064404648715176
0.0032699039891060004
0.0038840422849374953
0.004544403412926765
0.005245356189103634
0.005980102611362246
0.006740777897532009
0.00751864023054781
0.00830434174300776
0.009088262330660962
0.00986088010307301
0.010613148102063263
0.011336847042036524
0.012024888359563697
0.012671549545875883
0.013272633218052398
0.013825550690461964
0.01432933865900872
0.0147846229805966
0.015193546429084232
0.015559677861538562
0.015887919189254675
0.016184424503581804
0.01645654299933828
0.016712794757535593
0.016962885385294946
0.017217762743058855
0.01748971567611965
0.017792510520104783
0.018141551717890243
0.01855398096270524
0.019047586828084512
0.01962201686491239
0.019977715210873284
0.0003392079128449296
0.0004367702458770363
0.0006517671754391257
0.0009344006253280567
0.0012809038582376863
0.0016905752631538313
0.002162548757042665
0.0026953497932586386
0.0032866334790056795
0.003932945977620011
0.0046295290519827335
0.005370200767584629
0.0061473392561613065
0.006951985805873816
0.007774070115623663
0.008602745849244163
0.00942681076655574
0.010235174980134973
0.011017335355854259
0.01176381475841004
0.012466531298883502
0.01311907371725931
0.013716872192739371
0.014257266869691915
0.014739487201597264
0.01516456284669931
0.015535190553607322
0.015855582230395866
0.016131317148865183
0.016369217935929894
0.016577265423221785
0.016764563473596283
0.01694136056161678
0.01711913185986563
0.017310722347244293
0.017530547611585515
0.017794838803623245
0.01812184308893455
0.018530954705649968
0.019025762649346623
0.0193389111464518
0.0002587461596309258
0.0003536983034848964
0.0005674589574146046
0.0008538953390409314
0.0012091892973752556
0.0016325728140118862
0.002123285374023383
0.002680047652612882
0.0033006830008418734
0.003981754711056159
0.00471826152289117
0.00550343773021001
0.0063286948889619615
0.007183728556480899
0.008056794702527372
0.008935139582487766
0.009805546235358077
0.010654945303338634
0.011471029718924651
0.01224281426976434
0.012961091388424537
0.013618751258017944
0.01421095418120883
0.01473516203825447
0.01519105108606895
0.015580338165922948
0.015906556686178477
0.016174817979944963
0.01639158937495752
0.016564514103453415
0.016702291276881907
0.016814627821522137
0.016912269038891103
0.0170071107018178
0.017112393359476865
0.01724297864810985
0.01741569975520069
0.017649708502653887
0.017965853830092013
0.01837185968356743
0.018637017710944385
0.0001834805353975554
0.0002741060951452572
0.0004838159010831194
0.0007715321506275963
0.0011334768117464812
0.0015689082590975404
0.0020773603359386834
0.0026580069877390083
0.0033090981227969353
0.004027418506833671
0.004807829712317337
0.0056429545144053225
0.006523056501825951
0.0074361499120052365
0.008368349180917996
0.009304436337692326
0.010228593255619306
0.011125221159060788
0.011979757595483658
0.012779403930120626
0.013513693674866187
0.014174859164854588
0.014757985193904994
0.015260966793857607
0.01568430997584961
0.016030826467618057
0.016305276673080474
0.016514011013045164
0.016664650794430528
0.016765839245501745
0.01682708233274656
0.01685869020454063
0.01687182316624189
0.016878642044138737
0.016892561594045785
0.01692860679346036
0.01700387884337251
0.017138086787305683
0.017353350273825705
0.01766164610507972
0.01787341598289737
0.00011731510358032923
0.00020125677443312304
0.00040295460580222665
0.0006882696517126271
0.0010535251613200565
0.0014981157247353977
0.002022183726490446
0.0026257359305993573
0.003307818942867005
0.0040657396973461405
0.004894392373127796
0.005785775683222712
0.006728777043399106
0.007709280448229491
0.008710618497744531
0.0097143406851523
0.010701220700508902
0.011652384873016659
0.012550424038865459
0.013380357152943332
0.014130344456597705
0.014792094655662384
0.015360960355063815
0.015835760373217354
0.016218397192525262
0.016513351716886407
0.016727136029546136
0.01686777351177507
0.016944358397269987
0.016966728742996484
0.01694527071825291
0.01689085984747579
0.016814936869593806
0.016729711929332168
0.016648490062029068
0.016586114655523388
0.016559527653791463
0.016588468436414396
0.01669576789634569
0.016898132482197428
0.01705146380965883
6.722667200726498e-05
0.0001385355052271233
0.000327106486759435
0.000605057959797269
0.0009687845971405035
0.0014181354721863662
0.0019543134347294925
0.0025786647662516134
0.003291548391658187
0.004091230793421719
0.0049729117544031415
0.0059279922365668885
0.006943705451229496
0.008003205990233742
0.009086161564038069
0.010169815727763857
0.011230407485707083
0.012244764151624442
0.013191850079460131
0.014054064937989563
0.014818140069843892
0.015475561291726312
0.01602253125092732
0.016459551630455878
0.016790746439094485
0.01702305773059592
0.017165433417294127
0.01722809972246183
0.017221979628682407
0.0171582892945102
0.017048321470362317
0.016903409860284928
0.01673506084105044
0.016555236662913964
0.016376776882261964
0.016213946691329632
0.016083110725311163
0.01600346773475725
0.015997706590418458
0.016086190113702527
0.016176286304639312
3.1996259498539136e-05
8.93681374516804e-05
0.0002585429213897499
0.0005226505126919267
0.0008783991155595224
0.001326507182017127
0.0018697452013707648
0.0025114751813260397
0.003254082854146847
0.004097440069816456
0.005037495109161107
0.006065162679460537
0.007165699182973708
0.00831873135087473
0.009499032156277905
0.010678018302517779
0.011825798598899241
0.012913480285512723
0.01391537634450268
0.014810782489247627
0.015585093175879966
0.01623017350219355
0.016744045718101827
0.01713005507755813
0.017395726907439082
0.01755152586727363
0.017609688087883716
0.01758324365211202
0.01748529100170054
0.017328541076670503
0.01712511842316818
0.016886591279616534
0.016624198403780276
0.016349244842273604
0.016073647328902586
0.01581062071163915
0.015575495424632274
0.015386685985933858
0.015266162849902086
0.015237227439998117
0.015259501584027708
0.0008046033369456593
0.0012495965014495782
0.002458330647301775
0.005131474309666247
0.0062419765299520655
0.00869832799486896
0.00998739106961568
0.012509979774914418
0.013670443098527404
0.015638714027213185
0.016408145828308025
0.017023106943651205
0.017485014077005985
0.017801572561949853
0.017984994034194585
0.018050217213935342
0.016474443651400012
0.01611238704786596
0.014776434062269481
0.014550804168961923
0.01437036867708147
1.3973460437039414e-05
6.118389547696493e-05
0.00021036613049570368
0.00045883902481117644
0.0017988228962612246
0.0032331643994381264
0.004125260053869512
0.0074392996333014876
0.01127043216312951
0.014721163069174911
0.018013354108344454
0.017890486882633203
0.017696857560873913
0.017446433115241092
0.017151796414175653
0.01682430226769748
0.015748654599549838
0.015394950026887228
0.015065148689068454
0.014412896424977426
1.104292037285505e-05
4.611229657804224e-05
0.00017442363923039113
0.0004049213078187455
0.0007353612399244875
0.0011685773720755597
0.0017111330894329856
0.002371201127487763
0.0031561290290254636
0.004069953484927594
0.00511097350449127
0.0062696834887788514
0.007527445821769395
0.008856296760149523
0.010220154511240734
0.011577437706621039
0.012884764887579054
0.014101103155649792
0.015191594317370542
0.016130372087935767
0.01690196487372794
0.017501236218799756
0.01793212474548439
0.018205621770725412
0.018337457162829775
0.018345885968380736
0.018249838233288625
0.018067558378003296
0.01781575229725707
0.017509190454266733
0.017160682791195748
0.016781337878213076
0.016381032320360346
0.015969039441132996
0.015554792300611844
0.01514877732081003
0.014763587291115722
0.014415126095895438
0.014124069969714652
0.013915856033871365
0.013833101301049379
1.5615221809218178e-05
3.8639299129673546e-05
0.00014747443303843067
0.00036072499612294003
0.0006763336188944724
0.0010979341098560776
0.0016338479842477188
0.0022945585803467554
0.0030899611045406665
0.00402644014910649
0.005103942397216446
0.00631337268576463
0.007634808003580648
0.009037068127646649
0.010479048711212437
0.011912885874976801
0.013288553395898926
0.014559058143690781
0.015685189678016204
0.016638902973240288
0.017404819641909246
0.01797984204748908
0.018371292085707907
0.0185941978284143
0.018668354002104124
0.018615642345580906
0.01845790300565801
0.01821546487005155
0.01790630932545777
0.017545766774364906
0.017146619576283138
0.016719493472912506
0.016273446173224012
0.015816694685062516
0.015357454019257198
0.01490489342793358
0.014470206790123721
0.014067935354016204
0.01371695961401747
0.013446129739476946
0.013329193929969754
2.5490661623450733e-05
3.638732283141766e-05
0.0001249602594710496
0.00031958819531190396
0.0006186365958950691