# vtk DataFile Version 2.0
time_10.vtk
ASCII
DATASET UNSTRUCTURED_GRID
POINTS   4141  float 
5.988858353296404e-05         3.2897817967388015e-18        0.0                           
0.24999999999999983           5.6760040568006425e-05        0.0                           
0.5000550058602311            1.2010414823829169e-17        0.0                           
0.75                          5.105910975657569e-05         0.0                           
1.000048847087547             -1.1913515002978962e-17       0.0                           
1.25                          4.390886302480728e-05         0.0                           
1.5000411729629124            -2.1880333498987277e-16       0.0                           
1.75                          3.515636993532401e-05         0.0                           
2.0000318763642504            7.215329454067325e-17         0.0                           
2.25                          2.4787253459243507e-05        0.0                           
2.5000209889164147            -3.24317819916503e-17         0.0                           
2.7500000000000004            1.2926899005602834e-05        0.0                           
3.0000086916552493            5.810552333301354e-17         0.0                           
3.25                          -2.979057405622091e-17        0.0                           
3.499995084074346             -2.282202062306402e-16        0.0                           
3.75                          -1.4835414959717306e-05       0.0                           
3.9999800963297902            2.6504140919971003e-16        0.0                           
4.25                          -3.0279261710280288e-05       0.0                           
4.499964419496084             6.37719440833402e-17          0.0                           
4.75                          -4.639396968120195e-05        0.0                           
4.999948097562747             1.771106532193203e-18         0.0                           
5.25                          -6.31232104362327e-05         0.0                           
5.499931159883531             -1.7425931688085167e-17       0.0                           
5.75                          -8.0510318193591e-05          0.0                           
5.999913522291038             1.0019314395965407e-16        0.0                           
6.25                          -9.872360460879624e-05        0.0                           
6.4998949751770425            3.6176313904519235e-16        0.0                           
6.75                          5.971303852320053e-05         0.0                           
7.000058210055797             4.3602477696090855e-06        0.0                           
7.250004684727579             5.483633709834775e-05         0.0                           
7.500052940801596             5.390583377031394e-06         0.0                           
7.750005768134534             4.867986920522537e-05         0.0                           
8.000046297986058             6.561277727239543e-06         0.0                           
8.250006972000532             4.100270331634467e-05         0.0                           
8.500038083031814             7.809274261799861e-06         0.0                           
8.75000823091128              3.169691313111596e-05         0.0                           
9.000028234394403             9.068534552152405e-06         0.0                           
9.250009480213638             2.0792006121013544e-05        0.0                           
9.500016825075829             1.0279410694373938e-05        0.0                           
9.75001066310176              8.438544271403023e-06         0.0                           
10.000004023625857            1.1390518160934252e-05        0.0                           
1.179717081268383e-05         0.29999473508748886           0.0                           
0.24998987935505898           0.3000125150737912            0.0                           
0.5000128301712709            0.2999798476431625            0.0                           
0.749974699185258             0.30001343859989466           0.0                           
1.000013732999847             0.2999641673688438            0.0                           
1.2499587926441649            0.3000143078278795            0.0                           
1.5000145915972312            0.29994783907151373           0.0                           
1.7499422617299354            0.3000151618784477            0.0                           
2.000015452841065             0.29993089853874505           0.0                           
2.249925104983706             0.30001605807963744           0.0                           
2.500016377054439             0.29991326261869805           0.0                           
2.749907196582298             0.3000170589931521            0.0                           
3.000017426082954             0.2998947210197257            0.0                           
3.2498882862849197            0.3000182213950976            0.0                           
3.5000081003940817            0.30005768998651544           0.0                           
3.750056074908585             0.30000935812397583           0.0                           
4.00001004760767              0.3000524359766155            0.0                           
4.250050389231808             0.3000115298826201            0.0                           
4.5000123139526975            0.3000457952043035            0.0                           
4.750043234519631             0.3000139439033407            0.0                           
5.000014779754356             0.3000375654319316            0.0                           
5.250034454125022             0.3000164683301957            0.0                           
5.5000173115469355            0.3000276832039788            0.0                           
5.7500240301967045            0.30001897407812167           0.0                           
6.00001978580977              0.3000162142463497            0.0                           
6.250012062714941             0.300021355990713             0.0                           
6.500022113309873             0.3000032908587095            0.0                           
6.749998695857481             0.3000236090230529            0.0                           
7.000024329743924             0.299989130423649             0.0                           
7.249984172192198             0.30002565738857445           0.0                           
7.500026279298631             0.2999739581863547            0.0                           
7.7499687231616665            0.30002747269596886           0.0                           
8.000028050773025             0.29995802997511156           0.0                           
8.249952579967468             0.3000291871762013            0.0                           
8.500029753502206             0.2999414822374935            0.0                           
8.7499358334834               0.30003090447661906           0.0                           
9.0000314984893               0.29992432134699754           0.0                           
9.24991844702784              0.3000327473558173            0.0                           
9.500033411514487             0.2999064222857246            0.0                           
9.749900251393127             0.3000348409114926            0.0                           
10.000035613751214            0.2998875312041747            0.0                           
5.830703013046578e-05         0.6000121174824511            0.0                           
0.2500130307629981            0.6000552177622024            0.0                           
0.5000534792116054            0.6000150463288365            0.0                           
0.7500161384625645            0.6000495515232742            0.0                           
1.0000473417716411            0.6000184596928062            0.0                           
1.2500196744438619            0.6000423916815047            0.0                           
1.5000396412018455            0.6000221744483536            0.0                           
1.7500234445089533            0.6000335774851944            0.0                           
2.0000302646578616            0.6000259882649819            0.0                           
2.25002724852166              0.6000230896201961            0.0                           
2.5000192362190203            0.6000297167983082            0.0                           
2.7500309159813647            0.6000110255816465            0.0                           
3.0000066810682813            0.6000332352316401            0.0                           
3.250034356354349             0.5999975638293225            0.0                           
3.4999928148667725            0.6000365073032384            0.0                           
3.750037523257503             0.5999829749900678            0.0                           
3.999977899422173             0.6000394353057644            0.0                           
4.250040343132302             0.5999674822288106            0.0                           
4.499962156641146             0.6000420921840071            0.0                           
4.750042944600504             0.5999512991003031            0.0                           
4.999945773265438             0.6000446355724588            0.0                           
5.250045487399808             0.5999345303004809            0.0                           
5.4999288091775815            0.6000472390019158            0.0                           
5.7500481532936805            0.5999171445932345            0.0                           
5.999911186712592             0.6000500947475791            0.0                           
6.250051135547455             0.5998989713263103            0.0                           
[...]
POINT_DATA  4141
SCALARS Con float 1
LOOKUP_TABLE default
0.0005272262871375479
0.0005706098676657173
0.0006562841229952287
0.000756471778859049
0.0008697558241511068
0.0009964824110534863
0.0011369201726964876
0.001291111826416928
0.001458851612750113
0.0016396807798873057
0.0018328931116161117
0.0020375493016586577
0.002252498578258175
0.0024764047415823795
0.002707772003330969
0.002944962410570126
0.0031862018155892975
0.0034295634909927318
0.003673470328031822
0.003920553204670673
0.0042001743064296075
0.00448130920426604
0.0047333705569081235
0.004973212716302011
0.005213644140234403
0.005453911127884797
0.005694310703508692
0.005935423861475049
0.006178269350084702
0.0064242207703593575
0.006674962869275506
0.006932453679731307
0.007198892457033908
0.007476689749300283
0.00776843778065779
0.00807687956330064
0.008404872320256159
0.00875529641243275
0.009130245258329091
0.00951976958659006
0.00974406240473697
0.0005358269750174877
0.000580235674784971
0.0006676507095633591
0.0007697213858586979
0.0008850344976651937
0.0010139009483520326
0.0011565537975451196
0.0013129980226061465
0.0014829898070583458
0.0016660337560573876
0.001861390561942012
0.0020680942680715124
0.002284978420433981
0.0025107104514562645
0.0027438346922431713
0.0029828316348348176
0.0032262129450776195
0.0034728356714671758
0.0037224358835601695
0.003981645720319012
0.004244680049716129
0.004503793904883112
0.004755772900538746
0.0050039749619912996
0.005247491563991469
0.005489242019611143
0.00573024129044455
0.005971581519005119
0.006214522134283743
0.006460582282564681
0.00671154438040806
0.006969441113749246
0.0072365341495140316
0.00751528937997573
0.007808349838729599
0.008118505928291624
0.008448659051802058
0.008801731342923998
0.009179840457940224
0.009573193380591115
0.009799952525566565
0.0005310805084531011
0.0005754547602396854
0.0006630281510352342
0.0007655093662214597
0.0008814545657039951
0.0010111636091034225
0.001154853416134953
0.0013125113470105066
0.0014838755531627814
0.0016684339391003905
0.0018654344529154601
0.0020739068028313074
0.0022926966631707756
0.0025205150941395625
0.0027560109318095823
0.0029978822787462417
0.0032450862013256136
0.0034970836748774523
0.003754929472685736
0.00401154268903193
0.004256890172033604
0.004502379507154431
0.004756589281295907
0.005008030303677935
0.005255076168377891
0.005498496052335363
0.005739914261083244
0.005980755107950008
0.006222528786633699
0.006466911317619714
0.006715792639885188
0.006971286983697567
0.007235726262527099
0.00751164392574743
0.007801753163623701
0.008108920563024043
0.008436131991580838
0.008786402291507121
0.009161958314109991
0.009553033975031953
0.009778537871166637
0.000522837729562056
0.0005672537655007283
0.0006551261592662518
0.0007582839043408776
0.000875277009686126
0.0010063820245511162
0.0011517885942305425
0.001311453357662426
0.0014850820355068802
0.001672130140034248
0.0018718155241131218
0.002083143131842421
0.002304943111041212
0.0025359241146894313
0.002774743234924791
0.0030200930862579714
0.0032707499726440867
0.003525563459417919
0.0037814162209077384
0.004034234602309467
0.004283732613489044
0.004531384669901777
0.004779222765464526
0.005027956891690955
0.0052741548912404665
0.005517135212005381
0.005757549049928782
0.005996656975396998
0.006235975470923512
0.006477250301106659
0.006722453892641735
0.006973786674767117
0.007233670609607162
0.007504736071165253
0.0077898032896528725
0.008091858819821583
0.008414023444071555
0.008759463376383518
0.009130571237333334
0.009517844216944987
0.009741494703215352
0.0005111881225395204
0.0005556653039094186
0.000643980629348781
0.0007481118056174944
0.0008665958967605512
0.00099967725558924
0.0011475054691424927
0.0013099918341421448
0.0014867927137534455
0.001677311283772901
0.001880710692923828
0.002095938554150374
0.002321762460939607
0.00255681438650037
0.002799637363892323
0.0030487095594374414
0.003302410026727413
0.0035586525738014194
0.003815020336164377
0.004069504891163339
0.004321010455242546
0.004570085195067859
0.004817573002027998
0.005063264920057363
0.005306705645491028
0.005547156244095475
0.0057848251663295555
0.006020622538788115
0.006255933506248993
0.006492481645968176
0.006732278293839399
0.006977597020007533
0.007230956615856185
0.007495104585683548
0.007772998665639807
0.008067784676226824
0.008382766168453595
0.008721317440418394
0.009086073832587981
0.009467915648439879
0.00968890969297023
0.0004960318443522613
0.0005406061694315007
0.000629524605835837
0.000734944038929893
0.0008553815486720989
0.0009910377925452722
0.0011420090076651645
0.001308145679023354
0.0014890367335486624
0.0016840113140746626
0.0018921509817563663
0.00211231164465657
0.0023431536042831445
0.002583175592511149
0.0028307432187989786
0.0030840982617078845
0.0033413123950456207
0.0036003188969388946
0.003859069779265561
0.0041158461361271055
0.004369672505477288
0.004620219393176278
0.0048674916197757575
0.005111485477748985
0.005351949512280696
0.0055888081600440455
0.005822313381194984
0.00605326309041563
0.006282942196591794
0.006513041905150245
0.006745597864889064
0.006982952100179657
0.007227726928034393
0.0074828042519016385
0.007751306102811186
0.008036573560493107
0.008342138612772085
0.008671640793633018
0.009028031537626024
0.009402686613366877
0.009620138569261513
0.00047727188439556815
0.0005219878248811819
0.000611689215861396
0.0007187332689037617
0.0008416085111670415
0.000980459853256139
0.0011353166091137325
0.0013059531893364017
0.0014918734727222848
0.0016923117648276363
0.0019062431946827902
0.002132402702644756
0.002369310971252358
0.0026153038029176423
0.002868560250640769
0.0031271240595800794
0.0033889413712607547
0.003651935223190742
0.003914151780015816
0.0041739607418683385
0.004430182370088563
0.004682110846785941
0.004929377030809801
0.005171778549880389
0.005409251166194079
0.005641901011164183
0.005870164989359189
0.006094884845575468
0.006317345098540555
0.006539246722903489
0.0067626688389528875
0.0069900343184276315
0.007224082967987682
0.007467850080767461
0.007724647696086241
0.007998045756542824
0.008291847516212673
0.008610011466254472
0.008955871270761506
0.00932141331763944
0.009534343198698352
0.00045482761277710324
0.0004997378937918937
0.0005904195177136935
0.0006994450953290286
0.0008252640076058143
0.0009679528807850271
0.001127461071773739
0.0013034729221961918
0.00149539154458088
0.001702338240801508
0.0019231607599310386
0.0021564500445472043
0.0024005647061813478
0.002653661896941096
0.002913733481344734
0.003178651820321359
0.0034462322647316316
0.003714324852252949
0.003980933963741217
0.004244339918993046
0.004503190270563902
0.004756518426911914
0.005003704342315214
0.005244418780770982
0.005478588763373045
0.005706426753525464
0.005928477356122053
0.006145674612888485
0.006359365818680806
0.00657131183128503
0.0067836684444129445
0.00699896316079536
0.007220073658551756
0.007450209829999381
0.007692898621036043
0.00795196967104479
0.008231536253265954
0.008535924302000644
0.008868912837583454
0.009223223660660976
0.00943053792700806
0.0004286594149381799
0.00047382107113407625
0.000565691482109392
0.0006770701352646057
0.0008063549675339304
0.0009535417281927958
0.001118488116619807
0.0013007767285531954
0.0014996971624021943
0.0017142429465164207
0.0019431172557004446
0.00218474794322455
0.0024373123894829217
0.0026987724441108517
0.002966920556955257
0.003239439157239732
0.0035139766603559256
0.0037882402521544306
0.004060098688053983
0.004327680273550481
0.004589445002099109
0.004844220335653317
0.005091202589835646
0.005329941763385727
0.005560333796381986
0.005782627137991735
0.005997446590339841
0.006205816476334096
0.006409176637387869
0.006609383737074811
0.006808702384944822
0.007009790928767885
0.0072156871987671956
0.007429796718625408
0.00765588384566247
0.007898064468857328
0.008160795077045245
0.008448811919028899
0.008766398795584652
0.009107142611118682
0.009307615735674478
0.0003987976055193095
0.00044426486536619866
0.0005375313893990111
0.0006516367520974916
0.000784913897180133
0.0009372657362158914
0.0011084489590861412
0.0012979362001899076
0.001504894692687167
0.0017281791452282349
0.001966333868032273
0.0022176057811260814
0.0024799699497042417
0.0027511689236163995
0.0030287668333715714
0.0033102188390463443
0.0035929551476101673
0.003874476079816677
0.004152450595141609
0.004424807056651594
0.004689805354313628
0.004946083552823763
0.00519268057389693
0.005429043306153204
0.005655028025308514
0.005870904375265933
0.006077362120875975
0.006275518745513594
0.006466922851528493
0.006653552068864804
0.006837805939064107
0.007022497067895313
0.007210843377967163
0.007406463739165149
0.007613377486905812
0.007836006813321104
0.008079177041964172
0.008348069752424265
0.008647526153450453
0.008972131087309486
0.009164390722273387
0.0003653767892564297
0.00041118949919925925
0.0005060374881560431
0.0006232238398253845
0.0007610026650363833
0.0009191737333485464
0.0010973871311980086
0.0012950022173855982
0.0015110600503372297
0.0017442696515555275
0.0019930044968562784
0.0022553121581023777
0.0025289397997983435
0.002811377337401396
0.0030999188607868963
0.0033917413799892772
0.003683997894005004
0.0039739192708952336
0.004258917021259015
0.004536677835576007
0.00480524162224165
0.005063058236362532
0.005309022719849583
0.005542492970020371
0.0057632959324148665
0.005971727419705613
0.006168549015816377
0.006354982807949549
0.006532704304158842
0.006703833799365482
0.006870927705631237
0.0070369719535988695
0.007205379691438162
0.007379994779022422
0.007565101445271762
0.007765439025965087
0.007986216860716945
0.00823308586779043
0.00851148707652924
0.008817136349130231
0.008999653548518493
0.00032867534653981606
0.0003748416535029193
0.00047140307701456916
0.0005919726048428746
0.0007347129401583081
0.0008993136299264753
0.00108531826027383
0.0012919765097527986
0.0015182061574394601
0.0017625688046059213
0.0020232574559567056
0.0022981004268043765
0.002584585462819569
0.0028799064203792186
0.0031810327470318234
0.0034847995985150012
0.0037880138211151266
0.004087568653224713
0.0043805583210599335
0.004664383413413636
0.004936839214600371
0.005196182139031236
0.005441172974545973
0.00567109912380747
0.0058857800249304025
0.006085560784815605
0.006271298439737212
0.006444344485946551
0.006606526507718497
0.0067601314759827185
0.006907893131779957
0.0070529858914271165
0.007199027137308667
0.007350089118956741
0.0075107205308765496
0.007685976467010054
0.007881451757263914
0.008103276029095349
0.008357518338608325
0.008641155123299896
0.008812241813366444
0.0002891588628263562
0.0003356307405862959
0.00043393955629566236
0.0005580957164985551
0.000706161601836465
0.0008777148650628215
0.001072201092899876
0.0012887735417347564
0.0015262387288847597
0.001783015917714833
0.002057110956099866
0.0023461109583102816
0.002647205316334086
0.0029572361343495877
0.0032727780897892234
0.003590244288483722
0.003906011402703837
0.004216554764070298
0.004518582625026667
0.004809158968209016
0.005085805975251399
0.005346580441075133
0.005590122061079271
0.005815675174986741
0.006023088125608825
0.006212795985381634
0.006385792808062285
0.006543599194364909
0.006688230414852601
0.0068221694002969175
0.006948348369243644
0.0070701419000682554
0.0071913735648399014
0.007316337136585905
0.007449832245231087
0.007597212874138337
0.007764443554729126
0.007958123479098024
0.008184959422939873
0.008443309589261207
0.00860112568484208
0.00024752487068584465
0.0002941651093095078
0.00039409699330193065
0.0005218816226924927
0.0006754791072845338
0.000854361938726719
0.0010578980350878454
0.0012851708815204228
0.0015349003516679333
0.001805377900414277
0.0020944197055940738
0.002399347170063377
0.0027170026273621384
0.003043804474334068
0.0033758415117927042
0.0037090014974901454
0.004039124514907194
0.0043621684885171265
0.00467437265729325
0.004972405305116382
0.005253484625043838
0.0055154655109885195
0.005756889792901046
0.005977001831945006
0.006175734965997848
0.0063536764753196395
0.006512019668179346
0.006652511512618254
0.006777403232571152
0.00688941019040188
0.006991685747214719
0.007087812714178514
0.007181814490685873
0.007278186972915107
0.007381950984995294
0.007498723459722043
0.007634801629902545
0.007797222858694845
0.007993318464709092
0.008222935652471217
0.008365508698304259
0.00020474378502513264
0.00025128361791123735
0.0003524785187038447
0.000483691219045852
0.0006427891034335279
0.0008291578833511763
0.0010421242491651052
0.0012807469472220629
0.0015437014979649253
0.001829179594930463
0.002134811345320283
0.0024576246572061765
0.002794052784800929
0.0031399959231105884
0.003490936455271809
0.003842100586981163
0.004188653062930168
0.004525907067965944
0.004849529594289867
0.005155723633177266
0.0054413723728914875
0.005704136339829867
0.005942500967161725
0.00615577814953064
0.00634407006487481
0.006508206512108984
0.006649667877065852
0.006770505526585265
0.006873269584448652
0.006960952164757378
0.007036951791482476
0.007105062798743732
0.0071694918446043926
0.007234902402928281
0.007306487059930305
0.007390066131015884
0.0074922071637745285
0.007620327557062289
0.007782344765176096
0.007979681921243648
0.008104941825048607
0.00016208805677229507
0.00020807547282567271
0.0003098433052040015
0.00044394455236549887
0.0006081788487373066
0.0008018785039057715
0.0010243861181084494
0.0012748063324426722
0.0015518384432701721
0.0018536218718694442
0.0021776132560414707
0.002520515075278187
0.00287827114859526
0.0032461374308150287
0.0036188276050994595
0.003990723216540971
0.00435612887577465
0.0047095466238905774
0.005045940964424698
0.005360968122659908
0.0056511493353581625
0.005913976827374622
0.0061479508921250285
0.00635255515798273
0.006528183551915441
0.006676035813167429
0.006797999102613647
0.006896531603502616
0.006974561106451325
0.007035408121004811
0.007082739788588155
0.007120557974468694
0.007153223084086152
0.0071855137213425865
0.007222721891143583
0.007270783360555617
0.007336440109105439
0.007427402540333633
0.007552105236068741
0.007713615849524333
0.00781944948559835
0.00012113541174993363
0.00016587734556517073
0.0002670930324587388
0.0004030962226798447
0.0005716643719693946
0.0007721215722055831
0.0010039112571989545
0.001266294998256809
0.0015581007370198679
0.0018774904068853946
0.002221773019794712
0.0025872889855690566
0.002969387574386111
0.003362510366871522
0.003760380911748989
0.004156286003600353
0.004543419937359892
0.004915252932496841
0.00526588135088869
0.005590321151896405
0.005884716482513182
0.0061464496778673595
0.006374154022591886
0.006567643264965852
0.0067277803184494726
0.006856311005147948
0.0069556879251435255
0.007028905793508395
0.007079364109942735
0.007110767766869688
0.007127071137499952
0.007132467748525285
0.007131425214822921
0.007128764067281495
0.007129779201117678
0.007140403626081166
0.007167417215034173
0.0072186817144548636
0.007303070054962194
0.007425330505448881
0.007509650220341187
8.373608103110659e-05
0.00012623550712375788
0.00022523263803976375
0.0003616120254910098
0.0005331607899105082
0.0007392514445369088
0.0009795737844847422
0.001253712338868792
0.0015607763259004488
0.0018990628614360021
0.0022657797349812316
0.0026568651247040873
0.003066936489639497
0.0034893900356735984
0.003916653744425658
0.004340573610312344
0.0047528901022900125
0.0051457454378094165
0.005512156515985953
0.005846395956297919
0.006144241522458459
0.0064030786867520775
0.0066218645762887085
0.006800980439986652
0.006942010030018569
0.007047483758644954
0.0071206240980962185
0.00716511985925122
0.007184947604916179
0.0071842500570556255
0.0071672746382054385
0.007138371012754739
0.007102044094646117
0.00706305857422008
0.007026591527236561
0.006998431933957793
0.00698522683971398
0.006994781918793818
0.00703618692767348
0.007116055178165808
0.007176914829063718
5.1879547869420725e-05
9.080976254034547e-05
0.00018535580138584503
0.00031996535937227376
0.0004924309527777574
0.0007023365356311293
0.000949829087860266
0.0012350394729096724
0.0015575735018144028
0.001916030745980278
0.0023075993662690186
0.0027277777271658313
0.0031702750342706577
0.003627128062376767
0.004089044349675767
0.0045459441775869535
0.004987636274698763
0.005404532941539617
0.005788302348642497
0.006132368798160896
0.006432205449188501
0.00668540456053114
0.006891549785166839
0.0070519410556883
0.007169235283933625
0.007247063039789175
0.0072896708792563256
0.007301622677430377
0.007287578599222122
0.007252157350734566
0.0071998793115948265
0.007135183246395302
0.00706250850756403
0.0069864347736917475
0.00691187430794226
0.006844312785896438
0.006790099601339666
0.006756761667724597
0.006753277238597265
0.0067877015586827434
0.0068232545057924565
2.780291961470831e-05
6.13785893706917e-05
0.00014861968372924516
0.00027853906102698176
0.0004490662397541242
0.0006602093889976893
0.0009128090544133085
0.001207844129969245
0.0015457198734560552
0.0019255918719871912
0.0023447726527133076
0.002798301321732623
0.003278758645887509
0.003776395883798077
0.00427960409607949
0.004775689947958002
0.0052518562841542315
0.005696235459655966
0.006098807394092299
0.0064520622539777275
0.006751328403783239
0.006994760085971054
0.007183042092936833
0.007318906783007893
0.007406567425453861
0.007451159078539543
0.007458251859442798
0.007433473634960014
0.007382254749360897
0.007309690567386653
0.007220508225967303
0.007119120861697017
0.007009753958499476
0.0068966322140926245
0.006784220362779611
0.006677516288424033
0.006582394768285545
0.006506011741770315
0.006457008758060938
0.006444628661639172
0.0064531029102196
0.0004136080096362532
0.0006250784657582623
0.0011874435088455118
0.0023959916968909816
0.002887423467170786
0.003954482179686324
0.00450334944868317
0.005553158769716113
0.0060236912006195135
0.006798311158031305
0.0070899756327836285
0.007315824042486689
0.007478317767772684
0.007582222335622124
0.007633775012070521
0.0076399250456771275
0.006941341669397792
0.006794561183957391
0.006258114465141867
0.006167431003202556
0.006094186590838695
1.3609362962999777e-05
4.237216605540339e-05
0.00012186291112825616
0.0002460661400363298
0.0008823172619546705
0.0015419203647634395
0.0019456209144426088
0.0034109632628357436
0.005041561120964975
0.006441455366634214
0.007607722098450646
0.007543883202646443
0.007454535391374015
0.007345111524306502
0.007220369580906841
0.00708450621076613
0.006648006493856665
0.006506019385739212
0.006373848336742234
0.006111594252174873
8.322283564188624e-06
3.150572704871978e-05
0.00010224360373408726
0.00021906870031628616
0.0003805675820813259
0.0005877985317420376
0.0008433266455749989
0.0011502097552812274
0.0015108755941556737
0.0019260084104540292
0.0023935062751616414
0.0029076575409831677
0.003458711971727421
0.004033013379994605
0.004613782935665592
0.005182504698005815
0.005720704916561163
0.006211793597906742
0.006642609592542291
0.007004392458219541
0.007293065881754523
0.007508887461885171
0.007655644449861331
0.007739622508386645
0.007768557165364438
0.007750717888310693
0.007694206469130947
0.007606490970730409
0.007494156898008055
0.007362836452567419
0.00721727211911969
0.007061476059150765
0.006898956493417749
0.006732993983612305
0.006566961607514466
0.0064046914058472435
0.006250902365107427
0.006111689590478729
0.005995127844809657
0.005911314624596138
0.005877848084895182
6.749710858782142e-06
2.469409637132276e-05
8.710781964763686e-05
0.00019672291900297024
0.00035226707718083683
0.0005552212903613722
0.0008089737431905218
0.0011176088383284563
0.0014846295926994927
0.00191163526505634
0.002397049398587705
0.0029350658940009112
0.0035150467557870883
0.0041216052321021495
0.004735517354862407
0.005335421824445542
0.005900043097621602
0.0064104942406619575
0.0068521741633754026
0.007215894789289533
0.007498104490842751
0.007700312773688077
0.00782798023673229
0.007889185245836648
0.00789333404266505
0.00785008942371473
0.007768596514662178
0.007657009102235954
0.007522274555264821
0.007370117407841307
0.0072051621110094145
0.0070311467761962