# vtk DataFile Version 2.0
time_10.vtk
ASCII
DATASET UNSTRUCTURED_GRID
POINTS   4141  float 
4.210005443252839e-05         1.6672114794054937e-17        0.0                           
0.24999999999999925           3.9852800720157934e-05        0.0                           
0.5000385997309182            -1.6032670635231481e-18       0.0                           
0.75                          3.579362270565272e-05         0.0                           
1.0000342269341562            5.291096556014401e-18         0.0                           
1.2499999999999996            3.0740391087539246e-05        0.0                           
1.5000288137226205            1.178855328842193e-17         0.0                           
1.75                          2.4585690123720573e-05        0.0                           
2.0000222847899125            3.324960844423248e-16         0.0                           
2.25                          1.7319183637749302e-05        0.0                           
2.5000146619619423            1.7758700359802994e-18        0.0                           
2.75                          9.027839025435917e-06         0.0                           
3.000006070327088             -2.6686877428091366e-17       0.0                           
3.25                          9.805517886649568e-18         0.0                           
3.4999965845658276            -1.0040401591698615e-16       0.0                           
3.75                          -1.0309834959840658e-05       0.0                           
3.999986169034672             1.5295357568292817e-16        0.0                           
4.25                          -2.1034027901723896e-05       0.0                           
4.499975288625155             -5.946437382565104e-17        0.0                           
4.75                          -3.22061186070966e-05         0.0                           
4.999963979244656             5.471091420932856e-17         0.0                           
5.25                          -4.378452679189887e-05        0.0                           
5.499952263225852             -6.495762683825169e-17        0.0                           
5.75                          -5.579809437463514e-05        0.0                           
5.999940083046315             7.825546548924615e-17         0.0                           
6.25                          -6.83635143795124e-05         0.0                           
6.499927292903966             -3.8258085144831514e-16       0.0                           
6.75                          4.198112722935187e-05         0.0                           
7.000040899233188             3.1323439533478156e-06        0.0                           
7.250003352926338             3.848502372966848e-05         0.0                           
7.500037135316454             3.83400255931251e-06          0.0                           
7.750004091820688             3.411385780840259e-05         0.0                           
8.000032430535043             4.634166524366536e-06         0.0                           
8.250004915278874             2.869856063775416e-05         0.0                           
8.500026645499844             5.488624760742541e-06         0.0                           
8.75000577740651              2.2163298196322887e-05        0.0                           
9.000019736896547             6.3510039842330805e-06        0.0                           
9.250006632798046             1.4528545740973051e-05        0.0                           
9.500011755620706             7.1794625930215e-06           0.0                           
9.750007441682316             5.8994111534937515e-06        0.0                           
10.000002819928987            7.938198347678887e-06         0.0                           
8.213952149001684e-06         0.29999634998187746           0.0                           
0.24999297210897514           0.30000870084289266           0.0                           
0.5000089146579789            0.2999860001165346            0.0                           
0.7499824248285256            0.3000093265080953            0.0                           
1.0000095253211114            0.29997511712661323           0.0                           
1.2499713908856103            0.3000099127499563            0.0                           
1.500010103717229             0.2999638033701285            0.0                           
1.7499599432586355            0.300010487202046             0.0                           
2.0000106828463577            0.29995208541182544           0.0                           
2.249948082381961             0.30001109015272154           0.0                           
2.5000113051318253            0.2999399063914312            0.0                           
2.7499357214381317            0.3000117657337783            0.0                           
3.0000120142923734            0.29992712005232186           0.0                           
3.2499226859643855            0.30001255422465334           0.0                           
3.500005843759738             0.3000405470500558            0.0                           
3.7500393890354538            0.30000669789587014           0.0                           
4.000007167475337             0.3000367938295396            0.0                           
4.250035340583834             0.3000081791204525            0.0                           
4.500008715078818             0.3000320905473867            0.0                           
4.750030284351515             0.3000098303997935            0.0                           
5.000010402721963             0.300026295304243             0.0                           
5.250024110416108             0.3000115592123734            0.0                           
5.500012136697407             0.30001936358246006           0.0                           
5.750016806282728             0.3000132748485778            0.0                           
6.000013830180836             0.3000113416557222            0.0                           
6.250008442456481             0.30001490328559965           0.0                           
6.50001542007618              0.30000232411671385           0.0                           
6.749999122483279             0.30001643788811666           0.0                           
7.000016927209389             0.2999924642772854            0.0                           
7.249989016578767             0.30001782770877156           0.0                           
7.500018248837352             0.2999819210577361            0.0                           
7.74997828754934              0.3000190552081015            0.0                           
8.000019445004364             0.29997087203493344           0.0                           
8.249967095791522             0.30002021004043994           0.0                           
8.500020590883228             0.2999594129051528            0.0                           
8.749955505628279             0.3000213647005065            0.0                           
9.000021764255646             0.2999475492434861            0.0                           
9.249943492570068             0.300022605422992             0.0                           
9.500023053614733             0.2999351947372895            0.0                           
9.749930939308953             0.30002402057028993           0.0                           
10.000024544749355            0.2999221725662425            0.0                           
4.102856367850644e-05         0.6000087424518966            0.0                           
0.2500093619976342            0.6000388088253348            0.0                           
0.5000375667194814            0.6000107336161865            0.0                           
0.7500114785941218            0.6000347740365675            0.0                           
1.0000332090023667            0.6000130646712012            0.0                           
1.2500138957142197            0.6000297143557514            0.0                           
1.5000277776345714            0.6000156073000577            0.0                           
1.750016477168614             0.6000235170865809            0.0                           
2.0000211935684775            0.6000182194034926            0.0                           
2.2500190823110287            0.600016168942798             0.0                           
2.5000134740788464            0.6000207712562361            0.0                           
2.750021591013107             0.6000077391390456            0.0                           
3.0000047081581305            0.6000231741157914            0.0                           
3.2500239379050764            0.5999983541936953            0.0                           
3.499995047674883             0.6000254002730826            0.0                           
3.7500260897109143            0.5999882031180868            0.0                           
3.999984675986794             0.600027384900586             0.0                           
4.250027998594336             0.5999774435261858            0.0                           
4.499973749339536             0.6000291785522011            0.0                           
4.7500297525803035            0.5999662243474747            0.0                           
4.999962397855784             0.6000308899209948            0.0                           
5.250031462522135             0.5999546190094664            0.0                           
5.499950663935678             0.6000326403221782            0.0                           
5.750033255730057             0.5999426065596044            0.0                           
5.999938494250495             0.6000345648818315            0.0                           
6.250035268284722             0.5999300686692989            0.0                           
[...]
POINT_DATA  4141
SCALARS Con float 1
LOOKUP_TABLE default
0.000275028347468411
0.0002961115573789799
0.00033778992482600686
0.0003864758871743943
0.00044145984894729295
0.0005028955585893451
0.0005709004586602949
0.0006454832941200986
0.0007265331601835699
0.000813817310572733
0.0009069838428437293
0.0010055687135214814
0.0011090063466061924
0.0012166425148062104
0.0013277473299634756
0.001441524486878045
0.0015571151282401463
0.001673590749440586
0.0017901810325991082
0.001908046374277578
0.0020406994577782766
0.002173788295960446
0.0022932820680340734
0.0024069524673626936
0.0025206684850148722
0.002634083189179628
0.0027473480880565487
0.002860755440084624
0.0029748072551304718
0.003090176474021049
0.0032076865038181772
0.003328293564898266
0.0034530717719328734
0.00358319927917513
0.0037199446073165384
0.003864652380003748
0.004018726208204952
0.004183584578333827
0.0043602669845044335
0.004544040186340663
0.00464987507847808
0.00027928714531973674
0.0003008629708029199
0.0003433845619902677
0.00039298036522004715
0.00044894264319626505
0.0005114078995733018
0.0005804762776799105
0.0006561382096691104
0.0007382643445041868
0.0008266041779355037
0.0009207897444883506
0.0010203439854440373
0.0011246934564584812
0.001233185049228322
0.00134510685281192
0.0014597165619575252
0.0015762861997205713
0.0016942471487446662
0.0018134362456193288
0.001936869955351995
0.002061842221650718
0.002184809657603064
0.002304257682046546
0.002421732547653614
0.002536823319838425
0.0026508791187055823
0.0027643822780309534
0.002877860206688259
0.002991925857377351
0.0031073195422313283
0.003224910101334522
0.003345688607128826
0.0034707583889530954
0.0036013235287304926
0.0037386763677895512
0.0038841837483706786
0.004039269995995059
0.004205373221204461
0.004383544733218648
0.004569128194507185
0.004676129408631538
0.00027688798536872435
0.00029845228225734596
0.00034105986094928057
0.00039086583833475535
0.0004471464313823911
0.0005100321198961825
0.0005796145770102758
0.0006558750641161138
0.0007386748525702827
0.0008277546631271117
0.0009227395764889598
0.0010231494504239096
0.001128415322486895
0.001237903018536017
0.0013509474706989333
0.0014669050703748937
0.0015852512451755036
0.0017056946419962082
0.0018286839833682553
0.0019509327832609466
0.002067802707236303
0.0021845111438541084
0.002304988032482092
0.002423935413864318
0.002540618152043854
0.002655405525986994
0.002769062877693972
0.002882270744153098
0.0029957572867696063
0.003110334834557304
0.00322692160186325
0.003346546128034896
0.0034703440147045815
0.003599550396222869
0.0037354898790828974
0.003879564412878396
0.004033237388498779
0.004197990158512942
0.004374926549332917
0.004559409598901148
0.004665811045614249
0.0002727277788163348
0.0002943205660205493
0.0003370899161223841
0.0003872435523294933
0.00044405331137460955
0.0005076372376844036
0.0005780727350428742
0.0006553251552460522
0.0007392390360541956
0.0008295383663300111
0.0009258325453058346
0.0010276282107228398
0.001134347447606934
0.001245353199508829
0.0013599825052799071
0.0014775878260571479
0.0015975608198997807
0.0017193305689069253
0.0018414267736146014
0.00196194629812921
0.0020807346685857487
0.0021984399534028883
0.0023159704864245093
0.0024336520128528886
0.002549910584206172
0.002664449040278842
0.0027775891868791376
0.0028899387779930726
0.0030022301932350445
0.0031153085743293265
0.0032301305293446145
0.0033477645523954454
0.0034693878954157324
0.0035962804907942033
0.0037298164646954587
0.003871453432284002
0.0040227177265812885
0.004185162073547401
0.00435996974398343
0.0045426325450053035
0.004648146737494805
0.0002668470016742905
0.0002884815796857904
0.0003314899542692444
0.0003821439076529418
0.00043970695170308065
0.0005042799804949189
0.0005759195291151182
0.0006545675800402578
0.0007400434072303178
0.0008320443402889653
0.0009301520340560591
0.0010338442066103834
0.001142511704634169
0.0012554798972607122
0.0013720313814829673
0.0014914185891840136
0.0016128501050147136
0.0017353241273940967
0.0018576916949534681
0.0019789964602610842
0.0020987045375345714
0.0022170456273976394
0.002334392529153743
0.0024506397581573135
0.002565582977905553
0.002678897052949746
0.0027907015525057894
0.002901445629834909
0.003011803394948589
0.003122611285726788
0.0032348448227419516
0.003349606819262469
0.0034681195458315167
0.003591717206795128
0.0037218376599793606
0.0038600125349423013
0.004007853559576892
0.004167011367310556
0.004338784482639317
0.004518845854930113
0.004623081481481461
0.00025919401759383576
0.00028089195991469956
0.00032422529971770685
0.00037554173425653845
0.00043409243689360063
0.0004999551386386
0.0005731586649539576
0.0006536137672942772
0.0007411053816651658
0.000835293438436514
0.0009357187301855307
0.0010418135259474346
0.001152916198500085
0.0012682879736273147
0.001387127401642919
0.0015085763252125838
0.001631700356323958
0.0017555049253026134
0.001879008185417662
0.002001384164768678
0.0021221557950820906
0.002241150735099825
0.002358358136281665
0.0024737715193802645
0.002587278903124061
0.0026988602606523673
0.0028086556637847344
0.00291706436321463
0.003024716478284625
0.0031324354128493426
0.0032412092816380598
0.003352173380074447
0.00346659827707858
0.003585880525808881
0.003711534105567545
0.0038451812796071127
0.003988540177262095
0.0041433854908452
0.004311163867566928
0.004487783686894289
0.004590318282566525
0.0002497174976775944
0.0002715049944720527
0.00031525970739554386
0.00036741229403206054
0.0004271967535205949
0.0004946613545998727
0.0005698002168366958
0.0006524850792075548
0.0007424576699754388
0.0008393301740801409
0.0009425903203132326
0.0010516107087913118
0.001165661638744232
0.001283925829590318
0.0014055128468939831
0.0015294706234490478
0.0016548044083420387
0.0017805123182347482
0.0019056536921941592
0.0020294428309799682
0.0021513088761457586
0.002270907730870375
0.002388058910098025
0.002502666995903167
0.0026147090834709253
0.002724249932599682
0.0028315159629228952
0.002936928187519929
0.0030411185027571517
0.0031449167294028916
0.0032493325613049567
0.003355539636463485
0.00346486333444612
0.0035787712773144987
0.003698865305471421
0.003826873597433135
0.003964640155028941
0.004114088162210933
0.004276843351524349
0.004449105472267309
0.004549472414158068
0.00023837299961904112
0.0002602808837944909
0.000304563060177487
0.00035773674514858025
0.0004190129120032493
0.0004884038027958449
0.0005658620645717666
0.0006512132159739442
0.0007441477629941066
0.0008442209886961346
0.0009508570991947282
0.0010633575923861798
0.0011809135081829205
0.0013026209382348036
0.0014274992223852385
0.001554513691851304
0.001682606051029337
0.0018107380865392973
0.0019379482518086762
0.002063409159159535
0.0021864710572650236
0.002306671205983179
0.002423715884584143
0.00253745448443018
0.002647863390736089
0.0027550594478341133
0.002859321152622899
0.002961114279121289
0.0030611018102625425
0.0031601431337140696
0.003259284863799709
0.0033597499339287854
0.003462927839391642
0.0035703668556682027
0.0036837678657709225
0.0038049788067456383
0.0039359870273482185
0.004078886369865203
0.004235511066113407
0.0044024113673783345
0.004500091597295062
0.00022513492203935306
0.0002471969175669843
0.00029211963041731435
0.0003465080658142939
0.00040954343765185535
0.00048119534916198195
0.0005613688161684602
0.0006498369923344601
0.0007462325046900324
0.0008500461026845451
0.0009606296703515403
0.0010772038701382853
0.0011988706639961704
0.001324630807805872
0.0014534067556264921
0.0015840717965886612
0.0017154868739376326
0.001846545089442356
0.0019762207637171814
0.0021036161611313587
0.0022279959744207047
0.0023488045035994875
0.002465666348355331
0.002578379026744632
0.0026869088942637807
0.0027913935870625623
0.002892152375303685
0.0029896959004641617
0.0030847325539582163
0.0031781681130501217
0.003271100976518481
0.0033648153608615227
0.0034607749143775713
0.0035606179053000522
0.00366615416467823
0.003779363093958224
0.0039023901652402854
0.004037519233586359
0.004186820292416561
0.004347255161281349
0.00444166883851094
0.00021001061194791257
0.00023226006194298923
0.0002779376021178247
0.00033373734600620467
0.000398803352055852
0.0004730562584414706
0.0005563483896851893
0.0006483960045433904
0.0007487689840160266
0.0008568875892039897
0.0009720238322988911
0.0010933082509889283
0.0012197428592224736
0.0013502208326529109
0.0014835532901828514
0.0016185033326131233
0.0017538268583709342
0.0018883184312501764
0.00202085859654805
0.0021504573373248943
0.0022762884749330274
0.0023977117045943077
0.002514282946419406
0.002625757004880031
0.002732087311983067
0.0028334267041503483
0.002930129431388262
0.0030227534307302405
0.0031120607535912188
0.0031990155729774952
0.0032847802094330796
0.0033707107991225705
0.0034583539825353018
0.0035494456679891605
0.003645912087376729
0.0037498726228008725
0.0038636419275397942
0.003989709303788925
0.004130404277247752
0.004283162399841511
0.004373662308807945
0.0001930572592997523
0.000215521675521337
0.0002620597841660626
0.0003194601839138155
0.00038682219463816945
0.0004640119587367211
0.0005508258422555861
0.0006469209866080972
0.0007518020002356103
0.0008648145882383685
0.0009851443065153327
0.0011118218493239881
0.0012437361339058981
0.0013796559892925498
0.0015182606377184403
0.0016581784050774466
0.001798032117459006
0.0019364884778879116
0.002072307584791947
0.002204388215481951
0.0023318048702385833
0.0024538342626591898
0.0025699711790121344
0.002679935632958475
0.0027836743365292523
0.002881359014433824
0.0029733833653860834
0.0030603590032623035
0.003143110800785326
0.003222671762660364
0.003300278319391058
0.003377367081660811
0.0034555741686419904
0.0035367378078357053
0.0036229043620171274
0.003716337248380746
0.0038195263000262943
0.003935176327026307
0.004065895106549088
0.004209653884082845
0.0042955212009239355
0.00017440143906470004
0.00019709426492815668
0.0002445751369735611
0.00030374267628499406
0.00037364446624433607
0.00045408820497908243
0.0005448137798545707
0.0006454202814128453
0.0007553476579039266
0.0008738653201883641
0.0010000667294041395
0.0011328721055782825
0.0012710410898782382
0.0014131964121465773
0.0015578585584713979
0.0017034902715607932
0.0018485484535561317
0.001991539925686625
0.0021310767144042367
0.0022659264335643985
0.0023950539684507327
0.00251765215442728
0.002633160877579328
0.0027412757944694647
0.002841948811770843
0.0029353829011151437
0.0030220235508677177
0.003102548615323725
0.003177858142705822
0.003249065386052649
0.0033174902637869057
0.003384656458305966
0.003452293049813958
0.0035223412642661728
0.003596966352792522
0.003678573962012146
0.0037698285384149817
0.0038736534485190903
0.003992946578886172
0.0041262748729508384
0.004206718318126252
0.00015426087773561268
0.00017716969820632026
0.00022563045635984406
0.0002866862263274318
0.00035932765931181385
0.00044330274555120705
0.0005382984603195841
0.0006438615417230495
0.0007593721870749727
0.0008840248871141239
0.001016816551298158
0.001156545037432184
0.001301820678950636
0.0014510921941437555
0.0016026868272676195
0.001754862882658609
0.0019058712249403627
0.0020540210795067897
0.002197744799895076
0.0023356564072850223
0.002466599607773912
0.0025896826162438943
0.002704298920043143
0.002810134967512097
0.0029071670020731424
0.0029956500329075615
0.0030761021150934077
0.003149286772625644
0.003216196273630662
0.0032780377605026484
0.0033362241038474598
0.003392370795909857
0.003448299857917414
0.0035060512272076577
0.0035679015353469803
0.0036363895029938044
0.0037143454560921076
0.003804905594003542
0.003911260974622428
0.004032630078311337
0.0041067894948516965
0.00013296720334732132
0.00015603770031135148
0.00020544102614135872
0.0002684300739314709
0.0003439368478466618
0.0004316525731171006
0.0005312206696078607
0.0006421476803946091
0.0007637649278258734
0.0008951976853930982
0.0010353435340283849
0.001182864435179533
0.0013361962378654567
0.001493577502518541
0.0016530973134684071
0.0018127594010172176
0.0019705577447706704
0.0021245572801183773
0.002272972677867251
0.0024142384734280836
0.002547065240662222
0.0026704784685284283
0.0027838392307272973
0.0028868478862300387
0.002979533814972201
0.0030622351626186143
0.003135572980186661
0.0032004239179466883
0.0032578950971587843
0.00330930417231604
0.0033561667535074217
0.0034001928503473566
0.0034432932437354507
0.003487596239866732
0.0035354746470001026
0.00358958213333106
0.003652896221215791
0.003728749796815126
0.003820619399182804
0.0039284241950838725
0.003995379864339681
0.00011098736786570617
0.00013410248954017927
0.00018429850169378816
0.0002491501653336224
0.0003275349396256136
0.00041909608941282435
0.0005234507696696441
0.0006400863954724556
0.0007683046953122327
0.00090717364664215
0.0010554911974078643
0.0012117676971153209
0.0013742322570035146
0.0015408656545825741
0.0017094592582100631
0.001877696031400265
0.0020432467636381877
0.002203872473125494
0.0023575231845327847
0.002502423997270329
0.002637141397223524
0.002760625754022338
0.002872229255902307
0.0029717015086572255
0.0030591672789675294
0.003135092221625008
0.0032002426366777273
0.0032556450685297207
0.0033025504734247777
0.003342406735519384
0.003376842075762825
0.003407661035396778
0.0034368538562208595
0.0034666195798796428
0.0034994027084342683
0.0035379427112812996
0.0035853338416450137
0.0036450770939927884
0.0037209150739036896
0.003813507182208616
0.003872295977097998
8.893994650320281e-05
0.00011189416964886175
0.00016257342594050634
0.00022905315600377978
0.00031016825415290634
0.00040553043959955427
0.000514758145710907
0.0006373531922555447
0.00077261935294656
0.0009195882050504194
0.001076961409990645
0.0012430790951094165
0.001415921554560599
0.0015931480316892562
0.0017721718170671816
0.0019502660334344906
0.002124690020129098
0.0022928231756406433
0.0024522921117931863
0.0026010782783708816
0.00273759658005091
0.002860740099309755
0.0029698909307386877
0.003064901328687206
0.003146052425106902
0.003213999072357935
0.003269709558654418
0.0033144078190123273
0.0033495242080164573
0.0033766591598882985
0.003397562395171287
0.003414129016067698
0.003428412985078279
0.0034426578700680038
0.0034593446447169513
0.0034812563244248263
0.0035115580286345207
0.0035538770522608345
0.003612188421995037
0.003687922790885363
0.003737563362088262
6.759949473286302e-05
9.006951537153886e-05
0.00014070986921481068
0.0002083647599855412
0.0002918491854761287
0.00039076582590322266
0.0005047758142490187
0.0006334487349018472
0.0007761396475421248
0.000931877224499988
0.0010992755999988865
0.001276482476828674
0.0014611738301078879
0.0016506009683589235
0.001841689200021681
0.002031180056113528
0.0022158020493966094
0.0023924503197220665
0.0025583540799001543
0.0027112133090242377
0.002849291657721875
0.002971460053400477
0.0030771929039375904
0.003166524892990611
0.0032399801610140293
0.003298486875890353
0.0033432894087827643
0.0033758682189694114
0.003397874564513133
0.003411084686152846
0.003417375517602847
0.0034187225560489273
0.0034172193835752605
0.003415118025111532
0.003414889443367332
0.003419304027102676
0.003431533360338025
0.0034552642537394075
0.003494666459261979
0.003551957278885178
0.0035914812749192485
4.7884344050820925e-05
6.939625201293386e-05
0.00011920737912689145
0.00018731856438134134
0.0002725408435344598
0.00037449663978868046
0.0004929616765055304
0.0006276536126357953
0.0007780509518200344
0.0009432304417184963
0.0011217359808871504
0.0013114970114285307
0.001509811986908737
0.0017134063839830513
0.0019185655869048955
0.0021213309243250495
0.0023177364384643078
0.002504055904256803
0.0026770280509746396
0.0028340322122987443
0.0029731966105383725
0.0030934336889547336
0.003194408703685156
0.003276456466544508
0.0033404655645811535
0.0033877497427800556
0.0034199234226510375
0.003438793976214113
0.003446278698688549
0.0034443502927895193
0.0034350116147845743
0.0034202985510893564
0.003402308990375967
0.003383255833898207
0.0033655424167914117
0.0033518598449356093
0.0033453062318972823
0.0033495313052086966
0.0033687960672138645
0.003406190050912472
0.0034346956745497253
3.079482431423741e-05
5.070815620548856e-05
9.861583861133995e-05
0.00016615427069363456
0.0002521297354024538
0.00035626770950944616
0.0004785629553757868
0.0006189896367382006
0.0007772519041053561
0.0009525510114611574
0.0011433929449297805
0.0013474615604244147
0.0015615823217365907
0.001781793713730444
0.002003529169018226
0.00222189348015146
0.0024319988960660975
0.0026293129706397586
0.0028099674338721275
0.002970985893309051
0.0031104058410654
0.0032272913857325698
0.003321651919033286
0.0033942939603949893
0.0034466379844247975
0.003480529602641949
0.0034980679339543137
0.003501466053735834
0.0034929507515933833
0.003474703076825108
0.0034488373629883973
0.0034174146704846723
0.0033824864283505925
0.0033461644218331257
0.003310714867702208
0.0032786749526209757
0.003252992508917964
0.003237176608135946
0.003235427935560262
0.003251511004404672
0.0032681420660274426
1.7478463042918994e-05
3.4916957600701584e-05
7.95251257294852e-05
0.000145067263842401
0.00023041260832743532
0.00033549862744668764
0.0004606561801988451
0.0006062630509551181
0.0007723937076098818
0.0009584910150882414
0.001163083244136966
0.0013835863531354647
0.0016162316652877967
0.0018561506761434335
0.0020976268084789045
0.002334492810957674
0.002560619205364989
0.002770415880815142
0.002959264055867975
0.0031238127168758123
0.0032621061986291104
0.003373546358379166
0.0034587228220574542
0.0035191610495997946
0.0035570396971700033
0.0035749204085629665
0.0035755190522715977
0.0035615335339212895
0.0035355317751222678
0.0034998959258394986
0.0034568150871861734
0.0034083179432765065
0.003356337875228771
0.003302805154885239
0.0032497634955925055
0.0031995104947132196
0.003154761678820666
0.0031188431213619466
0.0030957896518579568
0.0030899280305610997
0.0030938643474619767
0.00021267103106040907
0.00031825299965187906
0.0005969939549291868
0.001189872104767639
0.0014290387444030497
0.0019447199969426204
0.0022079460702269737
0.0027070149905128868
0.002928461135817771
0.0032888286415625268
0.0034225208189287482
0.0035247252787871447
0.0035969348582086886
0.0036416727971751526
0.003662085658169358
0.003661583230572397
0.003322827784864444
0.0032536999982526794
0.003001878165003147
0.0029593180632790923
0.002924879652976739
9.185981765149254e-06
2.441449467769703e-05
6.548010068501789e-05
0.00012848889062079815
0.0004460530029959298
0.0007716425426247001
0.0009697540357662117
0.0016826798356592895
0.002464586074447712
0.003123583962938072
0.0036435574183180963
0.003611190346010095
0.003567346819788841
0.003514538096876699
0.0034549416927069938
0.003390462949828423
0.003184820790574385
0.003118171912326693
0.00305616819220861
0.002933078289403839
5.707249335235094e-06
1.8283113725147627e-05
5.519826996308155e-05
0.00011474389917864214
0.00019613990884766421
0.0002998534045711343
0.0004270610636536674
0.0005791413688366125
0.0007571191373081811
0.0009611212197468768
0.0011898755111664299
0.0014403284080872249
0.0017074674559519052
0.0019844282562547846
0.002262922267315564
0.0025339509377241424
0.0027886924343746566
0.0030193909168239426
0.003220072893792367
0.003386963842139033
0.0035185629222501515
0.003615416840733894
0.0036796905041486193
0.0037146488227967774
0.0037241495809951586
0.003712214561617519
0.00368271182450111
0.0036391536510675822
0.0035845970774758163
0.0035216260825931003
0.0034523934633305395
0.0033787043708701937
0.0033021282094843458
0.003224131777676147
0.0031462314980040787
0.0030701665860913634
0.0029981009345712564
0.0029328541084184543
0.0028781880225925414
0.002838833216718876
0.0028231026033380016
4.204791801678659e-06
1.4262922691428147e-05
4.7202279270454614e-05
0.0001033384173890536
0.00018196847045298068
0.0002837770475469614
0.0004103491542854288
0.0005635626471143469
0.0007449547513850009
0.0009550731511458703
0.001192862324144447
0.001455170813936418
0.0017364959515288685
0.0020290778106314736
0.0023234034320879144
0.002609086798387151