# vtk DataFile Version 2.0
time_10.vtk
ASCII
DATASET UNSTRUCTURED_GRID
POINTS   4141  float 
8.05276192059908e-05          -1.4385694353954239e-18       0.0                           
0.250000000000001             7.665073577995126e-05         0.0                           
0.5000744294222027            -2.8877177518148152e-18       0.0                           
0.7499999999999999            6.934080878469179e-05         0.0                           
1.0000664469117653            4.792030161522663e-17         0.0                           
1.25                          5.990961908143657e-05         0.0                           
1.5000562530500217            4.3869745302704315e-17        0.0                           
1.7499999999999998            4.814906564197431e-05         0.0                           
2.0000437028033384            3.8006602115899664e-17        0.0                           
2.25                          3.404226537606396e-05         0.0                           
2.500028843439841             -8.91456278556804e-18         0.0                           
2.75                          1.7770724396052225e-05        0.0                           
3.0000119406516035            -1.5971779370987777e-17       0.0                           
3.25                          -6.423616984358037e-19        0.0                           
3.499993092662804             -1.2243212524293273e-16       0.0                           
3.75                          -2.0801511238005485e-05       0.0                           
3.999972095398359             3.800154838849071e-17         0.0                           
4.25                          -4.247373008472373e-05        0.0                           
4.4999500663185446            9.782711856955241e-17         0.0                           
4.75                          -6.518518607741278e-05        0.0                           
4.999927027724378             -1.4969269768828743e-18       0.0                           
5.25                          -8.887114824563998e-05        0.0                           
5.499903010154281             -5.3786969685899597e-17       0.0                           
5.75                          -0.00011359934613222822       0.0                           
5.999877889899034             -3.392661722788505e-17        0.0                           
6.25                          -0.0001396088703264506        0.0                           
6.499851371467924             5.449529585630263e-16         0.0                           
6.75                          8.026178850423613e-05         0.0                           
7.000078414882952             5.400555685406639e-06         0.0                           
7.250005887395879             7.417185495642775e-05         0.0                           
7.500071741737682             6.9390171040761374e-06        0.0                           
7.750007498500244             6.619244319881042e-05         0.0                           
8.000063050750208             8.66936878237824e-06          0.0                           
8.250009274067155             5.5994207214128254e-05        0.0                           
8.500052070875283             1.0504892738563902e-05        0.0                           
8.75001112428519              4.343073407996905e-05         0.0                           
9.000038719523252             1.235501775502263e-05         0.0                           
9.250012960394605             2.854527127755243e-05         0.0                           
9.50002310053787              1.4137206087084903e-05        0.0                           
9.750014703034653             1.1550144226374897e-05        0.0                           
10.000005446765046            1.577768776553561e-05         0.0                           
1.639532125959542e-05         0.2999925415425042            0.0                           
0.24998576415724108           0.30001747895590125           0.0                           
0.500017950774533             0.29997172193983895           0.0                           
0.7499644990751072            0.3000188675349228            0.0                           
1.0000193136236653            0.29994969037831865           0.0                           
1.2499421157309116            0.30002018844676187           0.0                           
1.5000206217090295            0.29992664296896643           0.0                           
1.7499187463899555            0.3000214937092651            0.0                           
2.0000219385715607            0.2999026212939798            0.0                           
2.2498943816098476            0.3000228620266849            0.0                           
2.5000233470255364            0.29987750343869785           0.0                           
2.7498688407190564            0.30002437880930677           0.0                           
3.0000249311183476            0.29985099290469136           0.0                           
3.249841772823748             0.3000261206004811            0.0                           
3.5000098670104336            0.3000776264075661            0.0                           
3.7500756108182745            0.3000117592911211            0.0                           
4.000012788546451             0.3000709741255617            0.0                           
4.2500683216732815            0.30001498840483515           0.0                           
4.500016146975755             0.3000622856796914            0.0                           
4.750058883836082             0.30001854835097724           0.0                           
5.000019777412504             0.30005128467462805           0.0                           
5.250047083423711             0.3000222582358422            0.0                           
5.500023496982289             0.30003788481979815           0.0                           
5.750032896523923             0.30002594130959953           0.0                           
6.000027136482672             0.3000221759826509            0.0                           
6.250016458513222             0.3000294538110136            0.0                           
6.500030575758632             0.30000432649990666           0.0                           
6.749997949169678             0.30003281211747              0.0                           
7.000033896380839             0.2999846302267978            0.0                           
7.24997770310816              0.3000358926693964            0.0                           
7.500036829802192             0.2999633912818238            0.0                           
7.749956037282567             0.3000386364807937            0.0                           
8.000039515559433             0.2999409796083225            0.0                           
8.249933287061385             0.30004124955878064           0.0                           
8.50004211555942              0.2999175863635453            0.0                           
8.749909576386377             0.3000438760731264            0.0                           
9.000044783483789             0.29989321551874987           0.0                           
9.249884849033705             0.30004668518792144           0.0                           
9.500047692122543             0.2998676880653694            0.0                           
9.749858864877009             0.3000498472662586            0.0                           
10.00005100562483             0.29984064744208233           0.0                           
7.813280692671081e-05         0.6000147549902659            0.0                           
0.25001613307389914           0.6000743098598065            0.0                           
0.5000721099447669            0.6000191485007196            0.0                           
0.750020771725338             0.6000670472327283            0.0                           
1.0000641562212698            0.6000242053542184            0.0                           
1.2500259960412174            0.6000576018332014            0.0                           
1.5000539245614193            0.6000296734240576            0.0                           
1.750031539354253             0.6000457534551397            0.0                           
2.0000412600721935            0.6000352758887029            0.0                           
2.2500371281703258            0.6000314743180689            0.0                           
2.5000261936049566            0.6000407614477477            0.0                           
2.750042530781558             0.6000148926777134            0.0                           
3.000008888647632             0.6000459659288392            0.0                           
3.25004763543668              0.5999962441394474            0.0                           
3.499989638078147             0.6000508556161943            0.0                           
3.750052382210789             0.5999759087087164            0.0                           
3.999968805534529             0.6000552640815349            0.0                           
4.2500566377529925            0.5999541863615611            0.0                           
4.499946693454263             0.6000592955486177            0.0                           
4.75006059568711              0.5999313801048547            0.0                           
4.999923568139414             0.6000631810230799            0.0                           
5.250064484687389             0.5999076370841958            0.0                           
5.4998995121512495            0.6000671628223939            0.0                           
5.750068557272077             0.5998829105592747            0.0                           
5.999874413498231             0.6000715059625995            0.0                           
6.250073078665309             0.5998569587007831            0.0                           
[...]
POINT_DATA  4141
SCALARS Con float 1
LOOKUP_TABLE default
0.0007825933718034121
0.0008639883584873376
0.0010248923229442752
0.0012144392963714362
0.001430293327079651
0.0016733372633811695
0.001944278648079367
0.002243371615753584
0.002570371894829515
0.0029245263103755354
0.0033045817292043293
0.0037088108063441034
0.004135050928117814
0.004580750071571392
0.005043009353576385
0.005518603882644086
0.006003977563068682
0.006495193743390312
0.006989166409442851
0.007492946133459149
0.008076554290376915
0.008666418029340057
0.009189800743831585
0.009686777983923558
0.0101879753051001
0.010691494319965342
0.011197758790687956
0.011707725873156721
0.012223269750601881
0.012746992781639446
0.013282127941710513
0.013832454499347186
0.014402227158485718
0.014996109924984732
0.015619110695817699
0.016276513426785343
0.016973800111715693
0.017716469501265746
0.018508433640012527
0.01932905329783108
0.019801356260674526
0.0007978781318061195
0.0008813311762050304
0.0010456388542700761
0.001238896079023046
0.0014587741493773904
0.0017060895730758143
0.0019814816680680304
0.0022851316404224964
0.0026167213865545447
0.002975426654457646
0.003359930589274728
0.003768455891584674
0.004198814173211415
0.004648471485044417
0.005114631862863469
0.005594358419151549
0.00608478101707797
0.006583831444374212
0.007091510613421963
0.007624121597886819
0.008168536378802964
0.008706144515615606
0.009229669893685195
0.009747135411941771
0.010256273849663638
0.010763880990158818
0.011272081539507059
0.011783044887917931
0.01229920977019502
0.012823514151798209
0.013359411543546947
0.013910846740823827
0.014482210977478656
0.015078288339148262
0.015704196382833664
0.016365321042633958
0.01706723918632798
0.017815538674493037
0.01861417931179416
0.019442820113966405
0.019920296958706004
0.0007899268662551554
0.0008732423433922355
0.0010377317385855804
0.0012316335233095873
0.0014525743938841901
0.0017013582229658448
0.001978601738673972
0.0022844607767124265
0.0026185915282496363
0.0029801476295072626
0.0033677997510015495
0.003779778214314363
0.004213941459010483
0.0046678775334063755
0.005139058013579098
0.00562508424613084
0.006124167037783769
0.006635689602944429
0.007162739041558996
0.007688969566160924
0.00819080905397551
0.00869582161018769
0.009224713572522211
0.009750206475102179
0.01026824610030078
0.01078042070679229
0.011290281329662444
0.011800784264224854
0.012314965002037269
0.012836133430124307
0.013367995600330113
0.013914685352802358
0.01448075462802126
0.015071140281687836
0.01569111701641411
0.01634623984941089
0.017042270979225314
0.017784997474364468
0.01857859825093116
0.01940272594581422
0.019877646616374763
0.0007760556779512308
0.0008593440197679221
0.0010241895057287306
0.0012191399091012788
0.0014418283378546044
0.0016930282948947883
0.0019733176804710064
0.00228280683992549
0.0026211035343739865
0.0029873138630282787
0.0033800668999088034
0.003797564241059645
0.004237657528662533
0.004697958910663006
0.005175988704277982
0.005669361759991532
0.006175878752593629
0.006693464306241621
0.00721529337603982
0.007732135815862665
0.008243666530288
0.008753792381020802
0.009267686145465201
0.009787080129785589
0.01030369558849917
0.010815646219168485
0.011324116745495485
0.011831642318495332
0.012341254136079923
0.012856414157257488
0.013381012401560668
0.013919375352972847
0.014476255633908754
0.01505680512625271
0.015666534501623558
0.01631126083251728
0.016997036937900674
0.017729968135488376
0.01851456886312681
0.019331000072499476
0.019802168201622526
0.0007564737173544045
0.0008397211946384378
0.00100510189277139
0.001201558919522889
0.0014267273782175836
0.001681338587995689
0.0019659121226142068
0.0022804894273741835
0.0026246014210996606
0.0029972714192845022
0.003397040765038168
0.0038220172188361003
0.004269945650835347
0.004738296368340562
0.005224355710819029
0.005725259699000162
0.00623788359242758
0.006757943693320346
0.007280286794833522
0.007800641009485511
0.008316835386339625
0.008830506466011566
0.009343891270009742
0.009856605684448636
0.010367478254960708
0.010874503677400317
0.01137779356689826
0.01187901493302887
0.012380855980261557
0.012886700609341193
0.01340050957866219
0.01392676300117038
0.014470423180433307
0.015036898023917883
0.015631998758505485
0.01626188840263291
0.01693301204353382
0.017651914483000335
0.018423612338635407
0.01922906472917639
0.019694918296263533
0.0007310376158837699
0.0008142588514829061
0.000980373646215918
0.0011788182638765837
0.0014072239719532464
0.0016662632849100622
0.0019563768598080816
0.0022775120336326333
0.0026290919082641996
0.0030100177939715676
0.003418691915704469
0.0038530588950113553
0.004310662326134096
0.004788706896667181
0.005284103550364682
0.005793465506333091
0.006312970872873618
0.006838411562875645
0.007365549735461305
0.007890844705338594
0.008412414895942594
0.008929800499666555
0.009443216488029994
0.009952723992322908
0.010457650744684212
0.010957575100896138
0.011452704773266405
0.011944415490173131
0.012435125346238902
0.012928109870236008
0.013427358513443155
0.013937486861663663
0.01446367645931901
0.015011626227094144
0.015587505434092562
0.016197901738923208
0.016849753611620274
0.017550173489920915
0.018304850903877658
0.019095767773073306
0.019554502142571234
0.0006996257289714184
0.0007828440702966203
0.0009499158841987819
0.001150855230233107
0.0013832814779994665
0.0016477906872228983
0.0019447236324461013
0.0022739089540620423
0.002634632205906946
0.0030256357800256765
0.003445136549329831
0.003890859314943613
0.004360082195422799
0.0048496859239122
0.005356196431354533
0.005875809105205685
0.00640445141158216
0.0069379363311839895
0.007472289698816379
0.008004205363433487
0.008531329882974635
0.009052304097759215
0.009566433043017998
0.010073280084702324
0.010572589158371904
0.011064356833102595
0.011549214124229077
0.012028616774705746
0.012504950501980501
0.012981479801985397
0.013462263775001346
0.013952077969791768
0.014456351753450267
0.01498111609550916
0.015532955604266454
0.01611895866776727
0.016746654690208234
0.01742384612388814
0.01815703794440749
0.018929462647924035
0.019379072068372985
0.0006621632096129644
0.0007454084891915527
0.0009136760275218957
0.0011176378477272368
0.0013548898456237659
0.001625933246167201
0.0019309893590619789
0.0022697465866084545
0.002641327791710498
0.0030442860730332103
0.003476616560578263
0.003935783380265545
0.0044187600468246525
0.004922080513033317
0.0054418992383595405
0.005974072107554797
0.006514277308995686
0.007058207308836558
0.0076018288978934615
0.008141650064453151
0.00867491764632894
0.009199649705296487
0.009714537219052072
0.010218810560652694
0.010712157077227561
0.01119478966152323
0.011667562385447135
0.012132116368986959
0.012590950064928127
0.01304743247748948
0.013505767827732546
0.013970945017393195
0.014448687192864592
0.014945406085595817
0.015468159752786434
0.016024609626370128
0.016622966422070333
0.01727183295313704
0.017978667786249142
0.01872821545718827
0.019166446091210418
0.0006186689676110118
0.0007019676204311859
0.0008716695873720827
0.001079186932579065
0.00132207776282797
0.0016007301650220714
0.0019152294545083709
0.002265107580202052
0.002649306606494108
0.0030661683877674438
0.0035134397022006684
0.003988293994041933
0.004487370962184027
0.005006835213705798
0.0055424577351414804
0.006089726775922138
0.006643997980700596
0.00720068552933893
0.007755479263953509
0.00830455345186195
0.008844719491091398
0.009373499164096175
0.009889123673672907
0.010390498788326588
0.010877190348840849
0.011349445837570952
0.011808259316781039
0.012255438119828413
0.01269365426278426
0.013126460412717167
0.013558278486236846
0.013994371041863173
0.014440807467152733
0.01490443112856424
0.015392828860358431
0.015914300447651675
0.01647781818687333
0.01709288619880069
0.01776805195473906
0.018489848587269868
0.01891415544707808
0.0005693093638192573
0.000652668434585186
0.0008240154575921472
0.0010355985497659495
0.0012849218300064135
0.0015722432894586286
0.0018975007553377037
0.00226006116591419
0.002658676705830085
0.003091465229850981
0.003555906567541091
0.004048858339913887
0.004566595196835769
0.005104875161806675
0.005659036620449458
0.006224129200370519
0.006795078624103487
0.007366879096644173
0.007934796904946837
0.008494560468457825
0.009042512777309754
0.009575711477725964
0.010091980161601993
0.010589929437278801
0.011068969128507569
0.011529329480025045
0.011972091116743694
0.012399218358236576
0.012813582849521193
0.013218972404896409
0.01362008431450507
0.014022509210238765
0.014432711600271483
0.014858012175072039
0.015306573465641229
0.015787387175241138
0.016310253765304223
0.016885666127703133
0.01752338544915204
0.01821202144933074
0.018619531881518714
0.0005144603989436573
0.0005978431115587192
0.000770974148319311
0.000987065541789719
0.0012435510240400818
0.001540544669254091
0.0018778329855797982
0.0022546198245219843
0.0026694697624611305
0.003120274091643241
0.0036042339746627295
0.00411786717403095
0.0046570447019207255
0.005217062377672554
0.005792750246205109
0.006378619763531158
0.00696904416604477
0.00755846156770372
0.008141584572896082
0.008713597080592873
0.009270320676741455
0.009808340237921875
0.010325088184676022
0.010818895264125066
0.011289020097890836
0.011735667370358622
0.012160000949108327
0.012564151947601564
0.012951221033821528
0.013325273689507096
0.013691330370007932
0.014055355151907043
0.01442424736364329
0.014805839417982717
0.015208902008622719
0.01564315479143364
0.016119273140267114
0.016648805611984525
0.017242833732116672
0.017892336647142258
0.01827982422514035
0.0004547769070360798
0.0005380676669568801
0.0007129869497215536
0.0009338960021209683
0.001198144197931836
0.001505693656566245
0.0018561869408523753
0.0022486810540001292
0.0026815699319318147
0.003152528061854034
0.0036584734903208262
0.0041955598863933526
0.004759206641715286
0.005344173361203281
0.005944681241224778
0.006554579032051961
0.00716754572528919
0.007777316709048093
0.008377916036248372
0.008963876177004386
0.009530428946666253
0.010073656907466009
0.010590601711045389
0.011079332625957637
0.01153898245066008
0.011969759641216939
0.012372944282959769
0.012750873856973878
0.013106923454503013
0.01344548448896604
0.01377194616945454
0.01409268428638432
0.014415061175615178
0.014747439520673603
0.015099210406470045
0.01548083322947619
0.015903877771225632
0.016380986242620323
0.01692463968548535
0.017528476161841663
0.01789234987404781
0.0003912651650328888
0.0004742220121035727
0.0006507127623958047
0.0008765255727086708
0.0011489177586201879
0.001467700884347056
0.001832396973637133
0.0022419519644102555
0.0026946256912336914
0.0031879016779853913
0.003718419702259523
0.004281944999504833
0.004873386546578566
0.005486872752384513
0.006115887159327511
0.006753459987832404
0.0073924045295847745
0.008025581496868807
0.008646170673741592
0.009247928654110442
0.00982541406347077
0.010374167335957482
0.01089083894940131
0.01137326694725443
0.01182050981855115
0.012232844060266123
0.012611737030781884
0.012959805366545441
0.013280768613936575
0.013579406375677335
0.013861526419569151
0.014133949756685365
0.014404517324329787
0.014682120810832353
0.014976757682947307
0.015299607289614648
0.01566311778813575
0.016081024949147465
0.016567250939075562
0.017118367974098055
0.017454682414657467
0.0003253526368416712
0.0004075454509743357
0.0005850575781142051
0.0008155195356539113
0.0010961003762095622
0.0014264767816357406
0.0018060957768837069
0.0022338545594898234
0.002707941974689673
0.003225698403704662
0.0037835032325803245
0.00437670960850572
0.004999644017690125
0.005645682010437178
0.006307403299148973
0.006976820144759949
0.007645663916742429
0.008305707350378225
0.00894909574356574
0.009568659878688584
0.010158187092138546
0.010712633565185729
0.01122826940542379
0.011702756557906311
0.01213516682396992
0.012525952241779964
0.01287688279943996
0.01319096700951257
0.013472369967579357
0.0137263417351586
0.013959166466516345
0.014178140464442957
0.014391584590420786
0.01460889405447262
0.014840625665714828
0.015098619004833972
0.01539613967151731
0.015747969669002795
0.01616946573181188
0.016660382307501224
0.0169648758276417
0.00025894351539137333
0.0003396779711077506
0.0005171893770931306
0.0007515599804201195
0.0010398925589901445
0.0013817640313908686
0.0017766214777803389
0.0022234114927201414
0.002720351704245548
0.0032647181734660204
0.003852666586269148
0.00447911637342716
0.005137722284571581
0.0058209492844086335
0.006520255238203996
0.0072263729344192945
0.007929670411596427
0.008620558373708821
0.009289907744484054
0.009929440209901247
0.010532059744008159
0.011092102604241642
0.011605495036339756
0.012069819769149207
0.012484302363487416
0.012849735620129086
0.01316836377063205
0.013443749003776026
0.01368064088297572
0.013884866293411891
0.01406325343162174
0.014223599786102218
0.014374690226073142
0.014526368542433648
0.014689662982426606
0.014876962954870591
0.015102235229710489
0.015381202434632651
0.01573059447884804
0.01615355417065158
0.016421721705573617
0.00019444333760784664
0.00027267298460707253
0.00044852898124310024
0.0006854146157735154
0.0009804120368324132
0.001333057765018134
0.0017429112269650134
0.0022091154511791706
0.002730069143782623
0.003303106988258351
0.003924224984572495
0.004587891533024509
0.005286977982360794
0.006012831501021853
0.0067554972543359655
0.007504078646341763
0.008247205620763245
0.008973566343953895
0.009672449050471793
0.010334240909868219
0.010950839074455722
0.01151594356877984
0.012025219482640374
0.012476333157737452
0.012868881396056905
0.013204241960081204
0.01348537782597784
0.013716627129282021
0.013903506954325824
0.0140525535408338
0.014171215228953198
0.014267808769807554
0.014351544922263886
0.014432625879036253
0.014522415073024559
0.014633679056140513
0.014780894641755912
0.01498055396846064
0.01525063131505775
0.015597824404693983
0.01582503603978807
0.00013472587951007835
0.00020896122789885164
0.0003807078685973045
0.000617886719407751
0.0009176344616210988
0.001279524504203714
0.001703389253427959
0.0021887902531116704
0.0027345334992961616
0.0033381967022639725
0.003995720043671261
0.004701112599467847
0.005446322389656451
0.006221304086529475
0.007014297135147432
0.007812299685311889
0.008601695533056432
0.009368967861266137
0.01010142069383879
0.010787829541792747
0.011418956693192851
0.011987890304962102
0.012490194429247498
0.012923883360118616
0.013289253891951567
0.013588620747260997
0.013826003734391456
0.014006811758784267
0.014137560697253599
0.014225652677670713
0.014279234288213568
0.014307143391315644
0.014318947914569648
0.014325076457166836
0.014337039372901457
0.014367739967800162
0.014431881206816157
0.014546429355563826
0.014730446358222385
0.01499428462709718
0.015175939456303364
8.301979933162566e-05
0.00015124253909280035
0.00031548031115541294
0.000549770149519608
0.0008513517290824651
0.0012199256893356864
0.0016558610113755557
0.0021594613558620873
0.002730261953370443
0.0033663528472943002
0.00406378184802444
0.004816110188400792
0.005614190074513681
0.006446218723386769
0.007298093634531591
0.008154051916235215
0.008997531886268518
0.009812156564113132
0.010582717628655628
0.011296040499446196
0.011941635307927816
0.012512079452996514
0.013003122476723182
0.013413545047209296
0.013744831773161627
0.014000731098485613
0.014186774828915252
0.014309819780673805
0.014377658480416588
0.01439872944267516
0.01438194299600217
0.014336627612851812
0.014272594554406638
0.014200315202137876
0.014131204778215792
0.014078009373748297
0.014055294819576774
0.014080054119219948
0.014171961772095612
0.01434543166921465
0.014477214212899802
4.555038467959394e-05
0.0001022782113187455
0.0002546735022877207
0.00048184475523452855
0.0007811068528592516
0.0011525466917057421
0.0015974447005941378
0.002117276666473778
0.002712752954992955
0.0033828651230373313
0.004124027113852428
0.0049294070140818835
0.005788557698752384
0.0066874361691529865
0.007608861308420371
0.00853339418162917
0.009440550913949573
0.010310192070747728
0.011123896674871016
0.011866133071579148
0.012525084396258395
0.013093056726560515
0.013566475411085256
0.013945537528259297
0.014233627639662549
0.014436614482514357
0.014562136576686398
0.014618960295734536
0.014616465805527947
0.014564289570871356
0.014472131480160574
0.014349721023732713
0.014206930394245506
0.01405402032353531
0.013902007019546098
0.013763140307032256
0.013651491608853707
0.013583595891398424
0.013579016096260102
0.013655315037418252
0.013733121116732583
2.0221729186579087e-05
6.479375627069666e-05
0.0002001157368401068
0.0004147204089492231
0.0007062060941992683
0.0010753707218175272
0.0015248278640304514
0.0020577946482505253
0.002676770436945106
0.0033822184826792796
0.004171331705911978
0.005037027739975812
0.0059673372435002136
0.00694534205051098
0.007949761941973247
0.008956187763301846
0.009938828660529557
0.010872525715947136
0.011734716239886568
0.012507045943168255
0.01317640980623607
0.013735334032124997
0.014181741581229746
0.014518243851865767
0.014751147054298959
0.01488936350658613
0.014943382249761933
0.01492440553685037
0.014843706880325436
0.014712226814001798
0.014540394868363971
0.01433815274670546
0.01411514994962281
0.013881087198480113
0.013646190649630512
0.01342180942506798
0.01322112820376356
0.013060011572361023
0.0129574255185779
0.012933474704228837
0.012953339814433239
0.0006446991580478876
0.001010020024409267
0.0020093601628073856
0.004241946759392978
0.0051764295106819765
0.007255662031645089
0.00835295351398039
0.01051146293733782
0.011509237780775545
0.013208730187219355
0.013875961541968535
0.01441091878640581
0.014814369305942283
0.015092647198384459
0.015256096205156479
0.015317503438968982
0.013990392012453884
0.013681946362704152
0.012541834634688064
0.012349390984911576
0.012196842319479186
8.073974084691052e-06
4.409170796471815e-05
0.0001619300186438643
0.0003626063598484144
0.001463065486251476
0.0026537382260336836
0.0033985502203003988
0.006187928486284224
0.009449011336538705
0.012415294970997807
0.015290726372893172
0.015189627378036391
0.015027354705313824
0.014815954665599923
0.014566270945358478
0.014288076889760254
0.013371773087929235
0.01306992652146451
0.012788343636880044
0.012232333828939939
7.99660185318247e-06
3.385762738672786e-05
0.00013384950181750594
0.0003190132167310264
0.0005877000937183686
0.0009424296906300078
0.0013889958442886929
0.0019347215018443375
0.002586429137422726
0.0033483329786365766
0.004219936261670204
0.005194180405954684
0.006256174518821198
0.007382863679903718
0.00854390507231163
0.009703804619171655
0.010825067301041314
0.011871828225598792
0.01281327957957217
0.013626259315030954
0.014296606193821811
0.014819208086879492
0.015196959512953905
0.015439014799990563
0.015558760507049131
0.015571863558908737
0.015494634500843665
0.015342821588635197
0.015130853163209569
0.014871482523255947
0.014575760323711195
0.014253256705344197
0.013912467584306297
0.013561360118306456
0.013208035443731713
0.012861505594157554
0.012532609649260696
0.012235064713556992
0.011986738439744186
0.011809653419809756
0.011739802895222596
1.3783037433779123e-05
2.9446424875235142e-05
0.00011289463925419716
0.0002832639083911951
0.0005390387905784362
0.000883374586848316
0.0013235189746270116
0.001868744487290076
0.0025280644922233177
0.0033077686032936334
0.004208898689720825
0.005224930715145519
0.006340084904590613
0.007528749490560194
0.00875641525258984
0.00998224266478887
0.011162970779232048
0.012257466900687035
0.013230990025488507
0.014058314771237007
0.014725208959666922
0.015228219051886325
0.015573109173748172
0.01577250667446005
0.015843319742642685
0.01580436996854391
0.015674506353079227
0.015471300604025691
0.015210302273595384
0.014904764390071355
0.014565727201373113
0.014202355399765375
0.013822448052294533
0.013433069775139934
0.013041279262085174
0.012654960637566905
0.012283755986881013
0.0119402175979582
0.01164068843046694
0.011410091396192236
0.011310964464367522
2.369075603449511e-05
2.915288997938227e-05