# vtk DataFile Version 2.0
time_10.vtk
ASCII
DATASET UNSTRUCTURED_GRID
POINTS   4141  float 
9.196607719539284e-05         -2.616751121447564e-17        0.0                           
0.24999999999999986           8.744071356772618e-05         0.0                           
0.5000848624988243            -4.2148652040110696e-17       0.0                           
0.75                          7.898512040948889e-05         0.0                           
1.000075656147685             6.193483352220608e-17         0.0                           
1.25                          6.816120357714107e-05         0.0                           
1.5000639804351947            5.5129442021270685e-17        0.0                           
1.7499999999999998            5.4735324849138424e-05        0.0                           
2.000049672143032             5.5194249748597254e-17        0.0                           
2.25                          3.868687627758851e-05         0.0                           
2.500032781593961             1.6286973264555218e-17        0.0                           
2.75                          2.0212323254894202e-05        0.0                           
3.0000135941825214            1.2395632469546384e-16        0.0                           
3.25                          4.126142839780296e-17         0.0                           
3.499992241215433             1.7211931390607492e-16        0.0                           
3.75                          -2.342382125874838e-05        0.0                           
3.9999685585326206            9.776170100764386e-17         0.0                           
4.25                          -4.789160624664001e-05        0.0                           
4.499943683629931             9.524519810331145e-17         0.0                           
4.75                          -7.354353810575765e-05        0.0                           
4.999917658918735             3.28264705962103e-17          0.0                           
5.25                          -0.00010030677630651234       0.0                           
5.499890517213384             2.1104497088890462e-17        0.0                           
5.75                          -0.00012825871836292128       0.0                           
5.999862119194528             -4.6016149196261286e-17       0.0                           
6.25                          -0.00015766533596527546       0.0                           
6.499832137374897             -3.3758860681788724e-16       0.0                           
6.75                          9.166975364209924e-05         0.0                           
7.000089509169039             6.3051723186200425e-06        0.0                           
7.250006848050353             8.457543290044387e-05         0.0                           
7.50008176420794              8.021096904584219e-06         0.0                           
7.750008645350162             7.53725223984059e-05          0.0                           
8.00007176681732              9.952047395482928e-06         0.0                           
8.250010627011749             6.369184678881631e-05         0.0                           
8.500059213034298             1.2001067637320768e-05        0.0                           
8.750012692652811             4.936878580410855e-05         0.0                           
9.000044009466905             1.4067167999283324e-05        0.0                           
9.250014743527181             3.2449848141806665e-05        0.0                           
9.50002626959122              1.6059271384460135e-05        0.0                           
9.750016692716288             1.3167834608645932e-05        0.0                           
10.000006251325242            1.789872195982726e-05         0.0                           
1.8578509396656642e-05        0.29999165267506406           0.0                           
0.2499839975103633            0.30001978375511423           0.0                           
0.5000203147452367            0.29996814248537895           0.0                           
0.7499599864858916            0.30002134643386863           0.0                           
1.0000218487751242            0.2999432624822324            0.0                           
1.249934706896837             0.30002283498787197           0.0                           
1.5000233239566314            0.2999172272387691            0.0                           
1.74990830466501              0.30002430890046083           0.0                           
2.0000248116145087            0.29989008069609896           0.0                           
2.24988076674344              0.3000258550287864            0.0                           
2.5000264026919163            0.2998616853020327            0.0                           
2.7498518909752927            0.3000275663967144            0.0                           
3.000028188370143             0.29983171228823924           0.0                           
3.2498212894923366            0.3000295255637257            0.0                           
3.500011568913117             0.30008863031064287           0.0                           
3.7500862816514773            0.3000136787768595            0.0                           
4.000014826780774             0.30008090869851745           0.0                           
4.250077849267438             0.300017281172378             0.0                           
4.500018574104178             0.3000709140026263            0.0                           
4.750067017648032             0.30002125445362465           0.0                           
5.000022626499761             0.30005833633732903           0.0                           
5.250053546955991             0.30002539631906155           0.0                           
5.500026779601666             0.3000430787620354            0.0                           
5.750037410047603             0.3000295098351688            0.0                           
6.000030845305351             0.30002524156607663           0.0                           
6.250018758750215             0.30003343589350817           0.0                           
6.50003469028192              0.3000050199719398            0.0                           
6.7499978035415475            0.3000371817010144            0.0                           
7.000038388964127             0.2999827423036143            0.0                           
7.249974914517081             0.3000406235537765            0.0                           
7.500041676362284             0.2999587478988657            0.0                           
7.74995044159769              0.3000437090449915            0.0                           
8.000044699432772             0.29993343306853837           0.0                           
8.249924742830157             0.30004665544337095           0.0                           
8.500047633346641             0.2999070027545256            0.0                           
8.74989795061844              0.3000496225596813            0.0                           
9.000050647998217             0.299879457570342             0.0                           
9.24986999921626              0.30005279602767454           0.0                           
9.500053932311268             0.29985059676272624           0.0                           
9.74984062091937              0.30005636076201486           0.0                           
10.000057663808159            0.29982002557100457           0.0                           
8.929658629274128e-05         0.6000173023857946            0.0                           
0.25001883872674147           0.6000848316492601            0.0                           
0.5000822773906086            0.6000222017302017            0.0                           
0.7500240126626891            0.6000764288652821            0.0                           
1.0000731029562377            0.6000278443628974            0.0                           
1.2500298430515067            0.6000655883712996            0.0                           
1.5000613841382393            0.6000339481768123            0.0                           
1.7500360313878678            0.6000520634918838            0.0                           
2.000046947638628             0.6000402035170619            0.0                           
2.250042272036223             0.60003582377185              0.0                           
2.5000298289939096            0.600046330283014             0.0                           
2.750048306968324             0.6000170152596503            0.0                           
3.00001021506045              0.6000521440511914            0.0                           
3.250054007527141             0.5999959054366512            0.0                           
3.499988433207416             0.6000576014742761            0.0                           
3.7500593084389684            0.5999729113970661            0.0                           
3.9999648844841955            0.6000625397675996            0.0                           
4.250064083482014             0.5999483681899797            0.0                           
4.499939903584277             0.6000670752968085            0.0                           
4.750068541024651             0.5999226034034641            0.0                           
4.999913776803783             0.600071459154817             0.0                           
5.250072931903145             0.5998957735401668            0.0                           
5.499886590107329             0.6000759583126251            0.0                           
5.750077533784837             0.5998678226069282            0.0                           
5.99985821579934              0.6000808625087551            0.0                           
6.250082635698245             0.5998384805146486            0.0                           
[...]
POINT_DATA  4141
SCALARS Con float 1
LOOKUP_TABLE default
0.0010765676346972792
0.0011815599575929086
0.001390121990397303
0.001635143895282125
0.0019133987092711028
0.002225909485953905
0.0025734895339394517
0.002956382410322998
0.003374207696741679
0.0038259514309983513
0.004309981404139434
0.004824083952963835
0.005365517845238006
0.005931077769036361
0.006517155631223379
0.007119778267784909
0.007734621621044449
0.008356951386017525
0.008983188692287045
0.009620190648231277
0.010345133732666613
0.011078760007604622
0.011740843253060107
0.012370859796132862
0.013005714830947795
0.013643347160578264
0.014284510512599807
0.014930551166212003
0.015583898377443298
0.01624784537453355
0.016926434804824544
0.017624356383939707
0.018346858893907875
0.019099666805860307
0.019888897162138167
0.020720973324727485
0.021602526938005778
0.022540177025313853
0.02353857526210543
0.0245719159774931
0.025165564748923883
0.0010981827781870732
0.0012058254109833632
0.0014187945110209466
0.0016685934043757782
0.0019520063219290707
0.002269970813996513
0.0026232130827077015
0.003011883897209772
0.0034355090408111698
0.0038929841227895163
0.0043825952852856054
0.004902063370317272
0.005448609534115541
0.006019040620337989
0.006609855579503434
0.007217394691190506
0.007838080035668353
0.008469276546022036
0.00911051323293871
0.009780920245035116
0.010464629889294383
0.011139417734215222
0.011798057770020087
0.01245147854555782
0.01309526611417105
0.013737511502834891
0.014380834068229958
0.015027978661494107
0.015682029375436893
0.016346674573620205
0.01702622023415841
0.01772555629759345
0.018450098307540446
0.019205718326248986
0.019998668645128025
0.020835498627365775
0.021722957237095886
0.02266777350006605
0.02367465368529311
0.024718147966688482
0.025318315630369487
0.0010877680536045364
0.0011952528671221507
0.0014084889995613491
0.0016591552222775872
0.0019439735446695123
0.002263862876383505
0.0026195173578954355
0.003011051507105597
0.003437953554544005
0.0038990848697668294
0.004392707646004718
0.004916541016767839
0.00546784839385171
0.006043563610193571
0.006640477338744568
0.007255527416177878
0.007886358461911712
0.008531938583209138
0.009195675149572872
0.0098579080361542
0.01049349087316088
0.011133216780924006
0.011798613544765042
0.012459985175379076
0.013113428669899617
0.013760448790533394
0.014405240579184603
0.015051395628272625
0.015702665790014957
0.016363161548471453
0.017037481438329245
0.017730739730052115
0.018448547425337507
0.019196966182503744
0.019982446032060647
0.020811750829534834
0.0216918653822571
0.022629771099159056
0.02363044303591188
0.02466837602790969
0.025265355911147522
0.0010695731597515658
0.0011770509695011723
0.0013908023380219466
0.001642879653456297
0.0019300083404597383
0.002253063914221433
0.0026126857957531387
0.0030089244319962826
0.0034411992254101526
0.003908302591583013
0.004408433629948805
0.004939262354138872
0.00549802756146504
0.006081673473030377
0.006687029228873863
0.007311033092972156
0.007950842210752646
0.008603800825614563
0.009261722435227802
0.009914314723925746
0.01056090474820954
0.011205758322057084
0.011854669274515742
0.012509299182165317
0.013160632010797958
0.013806822467641105
0.014449347146697718
0.015091322538592945
0.015736491246431485
0.016389140461145448
0.017054087456494282
0.01773668040029211
0.01844277819889706
0.019178711425748382
0.01995122739708383
0.02076742109749902
0.021634644101937033
0.02256027640878924
0.02354970668344961
0.02457804474933651
0.025170357446119104
0.0010438700735527124
0.0011513357023913335
0.0013658593269044884
0.001619967540869459
0.0019103806483756122
0.0022379140392795025
0.002603125744774993
0.003005970518605519
0.003445761146460933
0.003921175162408924
0.004430290023351703
0.004970646397777126
0.005539338668886772
0.0061331268072694085
0.006748551637046855
0.007381984615334549
0.008029517764649243
0.00868593339293848
0.009345166354969046
0.010002121409546942
0.010654233357674093
0.011303174571725737
0.011951301670189892
0.012598207751941528
0.013242639081558816
0.013882536506582823
0.014518269073742061
0.015151985647789934
0.01578705366931542
0.016427684366587453
0.017078792260624594
0.017745922185061047
0.018435199149962844
0.019153278388914
0.019907288266316468
0.020704761735502505
0.02155354532256358
0.022461571065725664
0.02343485523629625
0.024449517639669256
0.02503526587966124
0.0010104501346471458
0.0011179369409763783
0.0013335199260659095
0.0015903136107374512
0.0018850234577559746
0.0022183816851677777
0.002590836921217672
0.0030022144469143666
0.003451679661114073
0.003937744697716384
0.004458300720006151
0.005010673819655676
0.005591699954795562
0.006197807586339147
0.006825081762018923
0.007469273362014521
0.008125654866566785
0.008789108858298032
0.009454523249417174
0.01011765874383373
0.010776172078684903
0.011429376357007656
0.012077407748143589
0.012720303203152138
0.013357392288684045
0.013988360199581254
0.01461367527407503
0.015235183319895325
0.015855963447084658
0.016480123721107978
0.017112634696629308
0.017759224191251685
0.018426301973786863
0.019120896691901052
0.019850593591529467
0.02062346545869279
0.02144798415464577
0.02233279977995276
0.023284781983469467
0.024281335164802496
0.024858260642106875
0.0009691233231138301
0.0010766787693419894
0.0012936454976483782
0.0015538202074347547
0.0018538808223042477
0.002194452071119568
0.0025758445785990978
0.0029977210021177457
0.003459059929987615
0.003958160091627088
0.004492667367530667
0.005059622070819028
0.00565552175950949
0.006276389981332841
0.00691783854303795
0.007575109601480473
0.008243164880340381
0.008916872643482525
0.009591397581320368
0.010262709483500962
0.01092791301852879
0.011585289167486726
0.012233938120848277
0.012873340609208908
0.013503270635537109
0.014123878572510703
0.014736106748540312
0.015341899430900934
0.015944318075397153
0.01654748126687705
0.017156467246987276
0.017777220759264894
0.018416476048900957
0.019081690433375063
0.01978098153773244
0.020523061153925132
0.021317152967014013
0.022172783390030724
0.023097854134251042
0.024071328897000727
0.024636913071019402
0.0009197503327724508
0.0010274341138177187
0.0012461374445850739
0.0015104245676299988
0.0018169283404150273
0.002166140602570626
0.00255820688547806
0.0029925975348084268
0.0034680701168477517
0.003982669311086088
0.0045337477279216816
0.005118006379884313
0.005731552522538287
0.006369971320362194
0.007028409039963984
0.007701681187836907
0.008384425595540394
0.009071336083248513
0.009757466483735901
0.01043854095594369
0.011111178947039654
0.011772939152111729
0.012422217416104872
0.013058105582275681
0.013680304868141896
0.014289200163006107
0.014885986117511393
0.015472825468487848
0.016052924790891696
0.016630546644573297
0.017210966619701205
0.017800412332995626
0.018406001223241944
0.019035682526154746
0.019698181878665958
0.02040294389108119
0.021160060583434285
0.021980074955454686
0.02287209318064817
0.023816963200600817
0.024368365405332718
0.000862302515533831
0.000970175123881635
0.00119097828372899
0.0014601275574625831
0.0017741893498000997
0.002133497058869186
0.00253800753075943
0.0029869753049768253
0.0034789108318067307
0.004011573680983331
0.004581986160150586
0.005186468427607103
0.005820696244342136
0.0064797823405725345
0.007158385168461679
0.007850851686981688
0.008551404512628872
0.009254373285287608
0.009954452845446604
0.01064694764940607
0.011327951737773935
0.011994438152561139
0.012644265834235738
0.013276147409772255
0.013889636580889942
0.014485152606611294
0.015064050118348975
0.015628690494215523
0.01618249612601626
0.016729965511866403
0.01727665751729866
0.01782915569962925
0.0183950258970135
0.018982773844597192
0.019601804243386606
0.02026237855857819
0.020975559871680448
0.021753035770652122
0.02260528705029652
0.02351539121398515
0.024049393597261517
0.0007969312113042859
0.0009050347819590051
0.001128277670114553
0.0014030234359524423
0.0017257478444940274
0.0020966017509981205
0.0025153356878254356
0.002980973960807696
0.003491764382985609
0.004045160924847024
0.004637827501092242
0.0052656668910527026
0.00592387901679606
0.006607052294231628
0.007309291341981987
0.008024383784584426
0.008746004928475172
0.009467951859802369
0.010184387301359949
0.010890065428281375
0.011580512813508826
0.012252149238696582
0.01290235247318455
0.013529487555499774
0.014132923698228246
0.014713058432052995
0.015271349440960622
0.015810349052063973
0.016333727733879956
0.016846281265442024
0.017353920608046417
0.01786365098192503
0.01838354669624389
0.018922727195409904
0.019491335876922544
0.020100519563520013
0.02076239741265192
0.021489912714392708
0.022295078316392044
0.023163562036598705
0.02367652305046714
0.0007240489910338652
0.0008323773316739702
0.001058322899140854
0.0013393289403675764
0.0016717557569339199
0.002055551332390661
0.002490251560921868
0.002974648716719265
0.0035067259453709656
0.004083622980648512
0.00470162487623445
0.00535618105570705
0.006041961690653835
0.006752956504945553
0.007482618437856771
0.008224050836721127
0.00897023163789585
0.009714261377745247
0.010449615864072727
0.01117038133974113
0.011871452659385684
0.01254868322759828
0.013198986448914317
0.01382039746047366
0.014412108704551889
0.014974490507061988
0.015509104123151235
0.01601870820325324
0.01650725848738652
0.016979899871418316
0.017442953071278543
0.017903899799816377
0.018371371236570774
0.018855143128384346
0.019366138492891177
0.019916435485128687
0.0205192691327752
0.021188923641706485
0.021939078705794823
0.022758359964952856
0.023246181740173993
0.0006444212774116714
0.0007528761816385043
0.000981631485060872
0.001269409002183681
0.0016124315661396698
0.0020104312075815717
0.0024627347308236315
0.002967918081655271
0.0035237153969291685
0.0041269579977867435
0.004773539633011087
0.005458419155680173
0.006175670682847677
0.00691858776216342
0.007679843206594669
0.00845170046585731
0.009226265990026569
0.009995766112098979
0.010752827770310763
0.011490741572239097
0.012203688846927931
0.012886920987048047
0.013536887485063976
0.014151316586449407
0.014729256925890622
0.015271090393408092
0.0157785253422412
0.016254577591125773
0.016703545041306462
0.017130981027713856
0.017543671417686243
0.017949620598217697
0.018358050561646133
0.01877941578560666
0.01922543403925965
0.01970912996368118
0.020244879711627976
0.020848357120801096
0.021535008997148494
0.022296782589076376
0.022754898354327306
0.0005592643211675498
0.0006675952939068677
0.0008990018273843728
0.001193795064251915
0.0015480463404398347
0.0019612707556169798
0.0024326117077343016
0.0029604686903593105
0.003542366274254292
0.004174852216343425
0.004853426766274353
0.00557251941833071
0.006325527156657818
0.0071049227944899205
0.007902434818066765
0.008709292010304846
0.009516518277714344
0.010315256661961626
0.011097097813281229
0.01185438824078174
0.012580497268339234
0.013270028462905167
0.013918969235326487
0.014524780159830082
0.015086431459272192
0.015604397800876382
0.016080624026824364
0.0165184741435658
0.016922675092140776
0.017299265221670305
0.017655556211167673
0.018000115369085766
0.018342773541649694
0.018694661271600018
0.019068272926136116
0.019477554736916588
0.019938004245870698
0.0204666854637427
0.02108086508089953
0.021776158031035577
0.02219954693333114
0.00047034206279382505
0.0005780668288609988
0.0008115556794671476
0.0011131907132553634
0.00147889283148417
0.0019079778237755258
0.0023994594816627536
0.0029516338517206
0.003561887922855537
0.004226536870938585
0.0049406996420358375
0.005698236236436305
0.006491766665110335
0.007312783338055572
0.008151858407931457
0.008998936405395732
0.009843692108535336
0.010675925609646706
0.011485962415433395
0.01226502683660894
0.013005561887399113
0.013701477104310121
0.014348315647896303
0.014943341758194957
0.015485557782223384
0.015975665563982493
0.016415989979494845
0.016810382987615006
0.017164125452237465
0.017483841857671743
0.01777744018956116
0.018054086504526234
0.01832422049920809
0.01859961542888733
0.01889348221487394
0.019220613134658684
0.019597550494988052
0.02004268919138341
0.02057510757788403
0.021194400017977923
0.021577638341918427
0.0003800480660675338
0.0004863531366967119
0.0007207632370508224
0.0010284582923084742
0.0014052342755077921
0.0018502509580308859
0.0023624841838450934
0.002940244627017387
0.003580898892045819
0.004280617618709195
0.005034171462152416
0.005834809950745228
0.006674251333283807
0.00754279987689687
0.008429592629351402
0.00932296207082274
0.010210886597987646
0.011081489790987414
0.011923543997438198
0.012726934876911861
0.013483050642585941
0.014185071420014152
0.014828147974994899
0.015409472612452343
0.01592825627206415
0.016385633735505847
0.0167845226779253
0.017129463063076625
0.017426461027449137
0.01768285795867379
0.01790724067213891
0.01810940443414909
0.018300376023111936
0.018492500798458232
0.018699594326716567
0.018937154968535673
0.019222622883640576
0.0195755908227208
0.020016871078483548
0.020550296078258885
0.02088765353105317
0.00029145178564904015
0.00039507506874350166
0.0006284385090403014
0.0009405815698970474
0.0013272332756536667
0.0017874731408913122
0.0023203789451874727
0.002924456168070214
0.003597233558095772
0.004334878258574031
0.005131875877532597
0.005980824751022928
0.006872383057803589
0.007795392494055353
0.008737181956491305
0.009684032539923847
0.01062176361650777
0.011536383924941272
0.012414743648453302
0.013245125592611356
0.014017724887039732
0.014724984442455987
0.015361774229440933
0.015925422122286342
0.01641562002384961
0.016834239120855462
0.017185092527195522
0.017473682738591106
0.017706966876838075
0.017893166216595178
0.018041639267797265
0.018162831074531413
0.018268305815263158
0.018370865913328604
0.01848475842170105
0.01862596855524498
0.01881259197848981
0.019065202927667606
0.019406185292379564
0.019843818014503477
0.020129413053924124
0.0002082748456063125
0.0003073803967419729
0.0005366930273229408
0.0008506029623037123
0.001244871938475198
0.00171859976524411
0.00227116941434351
0.002901557890980907
0.0036077312194616206
0.004386068051331586
0.0052308762999794265
0.006134065870537263
0.007085032668151267
0.008070789352802261
0.009076350668955633
0.010085347844163959
0.011080814024192592
0.01204605753180907
0.012965527889308097
0.013825583490178144
0.014615088609246448
0.015325796295408395
0.01595250627497042
0.01649301670062126
0.01694791095209323
0.017320233267622314
0.01761511020797705
0.01783937068053675
0.018001207860505943
0.01810991536232138
0.018175718495674183
0.01820971221532146
0.018223910033512092
0.01823140388443963
0.01824663362497097
0.0182857661648227
0.018367191836223647
0.01851209107697362
0.018744221050245497
0.019076435446182746
0.019304436494611773
0.00013476952881764676
0.00022682250961485049
0.0004478298663204885
0.0007595654571324853
0.0011578910006378631
0.0016420461996012447
0.0022120594885486674
0.0028677880004732816
0.0036080303953782457
0.004429694211748676
0.005327083316485053
0.006291394968993593
0.0073105066421842915
0.008369110482865118
0.009449213652885965
0.010530971313775757
0.011593767365532597
0.012617416478278364
0.013583341712042877
0.014475589912479925
0.015281579097850212
0.015992521394174397
0.01660351711388647
0.017113361606906522
0.017524137100464042
0.01784067596533873
0.01806998021018862
0.018220670137566265
0.018302517068540657
0.018326096145431413
0.018302578343259993
0.018243667902357662
0.018161682911262363
0.018069772523816294
0.01798226341694422
0.01791513207774504
0.017886601810866258
0.017917889290115202
0.018033519904418097
0.018251437042480247
0.01841639294798128
7.829895059309237e-05
0.00015710722614228182
0.0003642881804158648
0.0006685062512396604
0.0010656917611807568
0.0015555729893984359
0.002139315506268546
0.002818203154488762
0.003592419299588373
0.004459863227774027
0.0054151160069069405
0.006448674856576544
0.007546583419878192
0.008690555200292636
0.00985863204929433
0.011026338196611012
0.012168203871229952
0.01325946137410118
0.014277683763514131
0.015204150569885075
0.01602478425394524
0.016730585298462584
0.01731758220251485
0.017786382134316964
0.018141450127851882
0.018390254835726316
0.018542406566966985
0.018608884973995245
0.018601421259591692
0.01853206892485409
0.01841297301995517
0.018256331824328148
0.01807453682857725
0.01788047431555531
0.01768797448019255
0.017512395933239173
0.01737134410808766
0.017285454338561407
0.017279096228916477
0.017374142295968772
0.01747087945182557
3.809345632206553e-05
0.00010201885661291333
0.00028856659179476594
0.0005782515865457553
0.0009673334902089348
0.0014564897171814978
0.002048574618695795
0.0027470306119798996
0.0035541927783243085
0.004469637717680446
0.005488682968569582
0.006601222201646538
0.0077910924862910295
0.009036147276551368
0.010309126396336089
0.011579285644968892
0.012814596440271652
0.013984200524884093
0.015060742631990923
0.016022235599502273
0.016853220961712614
0.0175451430866132
0.018096002428093432
0.018509462716676094
0.01879363508476091
0.018959760546189128
0.019020970157671194
0.018991246577420195
0.018884652341728626
0.018714844197265636
0.01849486055891809
0.01823715288521331
0.017953827071707118
0.01765706544607272
0.017359708794650174
0.017075989132110322
0.01682240219220402
0.01661874122634444
0.016488595230347215
0.016456984880989664
0.016480574103662795
0.0008872001451296343
0.0013736073323433009
0.0026914449451450454
0.00559478164938223
0.00679746709487023
0.009451835412127354
0.010841943132554852
0.01355729916762417
0.014804444428453745
0.016917073793832393
0.017741979984216324
0.018400764553036065
0.018895092071250716
0.01923330875577415
0.019428547955426066
0.019496841375486563
0.017791066148652248
0.017400300046655583
0.015959166742755854
0.0157156958630836
0.015520270153250419
1.713060085531392e-05
7.004332381948912e-05
0.00023527244102844499
0.0005084224252031132
0.0019729137094912762
0.003534364895172281
0.004503408839239065
0.00809226368386889
0.01222380738906357
0.01593264253450953
0.019455469393701706
0.019321682534567966
0.019111839119544123
0.01884094141309631
0.018522518491227845
0.018168791918519785
0.0170078356928043
0.016626281064286805
0.01627056814493009
0.015566574891834788
1.2831013719120998e-05
5.2560372972254384e-05
0.00019532831264492564
0.00044920821733722573
0.0008116517769057815
0.0012856529998403674
0.0018781762319438444
0.002597841508416912
0.003452280009957662
0.004445452803385033
0.005575056640370929
0.0068303452031783654
0.00819077087861018
0.009625857962825236
0.011096575608420312
0.012558196516041613
0.013964271616920479
0.015271040921620141
0.016441466621983026
0.01744817578297009
0.018274900380287333
0.01891637659419119
0.0193769853680803
0.01966859656383493
0.019808110489946726
0.019815108375544815
0.01970988748036274
0.019512014372555262
0.019239416405391792
0.018907957646541067
0.01853141086348969
0.018121733086497768
0.01768956631800384
0.01724490906773924
0.016797931949717765
0.01635993304557352
0.01594446360730916
0.015568614461667008
0.015254577145408522
0.015029622742321917
0.014939932206376266
1.6852367848280808e-05
4.356682173192566e-05
0.00016532394989201313
0.0004006730487111994
0.000747279301103058
0.0012090205374270227
0.0017947768180323188
0.002515666666252824
0.0033820552148890425
0.004400394772497492
0.005570089428936512
0.006880743636001057
0.00831032523448674
0.009824807672680073
0.01137970080612723
0.012923512973201604
0.014402692704305095
0.015767151169525456
0.016975264375777975
0.01799739997344565
0.01881744749480905
0.019432362583220748
0.01985016627518925
0.020087055758513495
0.020164282899296032
0.020105310067627818
0.019933549241853546
0.01967079879945638
0.019336352137631983
0.018946672741495897
0.018515502573006874
0.01805427894572473
0.017572762813630106
0.017079816105016375
0.0165842985627097
0.016096090366128687
0.015627235969527205
0.015193357602791774
0.014814706225235404
0.014522240374183154
0.01439572841726297
2.6775293962518956e-05
4.035483997324083e-05
0.0001401951676013694
0.00035547345358256666
0.0006843321779952634
0.0011316298256198697