# vtk DataFile Version 2.0
time_10.vtk
ASCII
DATASET UNSTRUCTURED_GRID
POINTS   4141  float 
0.00011193004540879374        4.231804710056524e-17         0.0                           
0.24999999999999986           0.00010635725978929178        0.0                           
0.5001031908987271            1.3349717920682917e-17        0.0                           
0.75                          9.599188881121856e-05         0.0                           
1.000091923954515             -1.7917444571855556e-17       0.0                           
1.25                          8.278439844507004e-05         0.0                           
1.500077695229321             -8.666888057287084e-17        0.0                           
1.75                          6.645780161434323e-05         0.0                           
2.0000603107330077            2.800010192286006e-17         0.0                           
2.25                          4.6985378771871423e-05        0.0                           
2.5000398262153296            2.4859370336061304e-17        0.0                           
2.75                          2.4589361266352535e-05        0.0                           
3.000016561160212             -2.2436376278157986e-17       0.0                           
3.25                          2.1366990592838574e-17        0.0                           
3.499990699983346             -3.902535136967791e-17        0.0                           
3.75                          -2.8178481318543903e-05       0.0                           
3.999962138595592             1.0587395710812151e-17        0.0                           
4.25                          -5.775005782310727e-05        0.0                           
4.499932054316926             -6.399389183001778e-17        0.0                           
4.75                          -8.88143493690071e-05         0.0                           
4.999900517774684             1.2658866901474568e-16        0.0                           
5.25                          -0.00012128979049323001       0.0                           
5.499867560732029             -1.1542553795665295e-17       0.0                           
5.75                          -0.00015527464880654989       0.0                           
5.999833013360688             -5.987510639922105e-18        0.0                           
6.25                          -0.0001910830490410837        0.0                           
6.49979649237926              -5.777694575553477e-16        0.0                           
6.75                          0.00011157196415439397        0.0                           
7.000108908593531             7.76597778395213e-06          0.0                           
7.250008420702277             0.0001028437767400083         0.0                           
7.50009939728505              9.833406653464892e-06         0.0                           
7.750010584406617             9.158081559820063e-05         0.0                           
8.000087180945721             1.2155294773973757e-05        0.0                           
8.250012966348667             7.734600044619647e-05         0.0                           
8.500071899579387             1.4617167685673053e-05        0.0                           
8.75001544812648              5.994386590548544e-05         0.0                           
9.000053441584722             1.710043801994295e-05         0.0                           
9.25001791421646              3.942662902617542e-05         0.0                           
9.500031936946916             1.9499861492849318e-05        0.0                           
9.750020265254705             1.606184960257808e-05         0.0                           
10.0000076857316              2.1729056885827342e-05        0.0                           
2.253315012134524e-05         0.2999900337461628            0.0                           
0.24998078894680253           0.3000239822942219            0.0                           
0.5000246323291054            0.2999616376245017            0.0                           
0.7499517781601567            0.30002589744036134           0.0                           
1.0000265150488694            0.2999315434049372            0.0                           
1.2499211822916634            0.30002773117345743           0.0                           
1.5000283357539552            0.2998999930198958            0.0                           
1.7498891659424047            0.3000295557299496            0.0                           
2.0000301788506736            0.2998670296946576            0.0                           
2.249855705318073             0.3000314711591699            0.0                           
2.500032148118497             0.2998324853410085            0.0                           
2.749820558390487             0.30003358175622685           0.0                           
3.0000343448651834            0.29979597479547176           0.0                           
3.2497832740895434            0.30003597804604154           0.0                           
3.50001427494717              0.30010784634401155           0.0                           
3.75010495601514              0.300016820993253             0.0                           
4.000018204109285             0.30009836260678197           0.0                           
4.250094617909437             0.3000211577999414            0.0                           
4.500022712467738             0.3000861490320085            0.0                           
4.750081400552775             0.30002593372008873           0.0                           
5.000027582160599             0.30007083862308775           0.0                           
5.2500650199171215            0.30003090994982606           0.0                           
5.500032572337652             0.300052316380782             0.0                           
5.750045443410473             0.3000358556539752            0.0                           
6.000037463355491             0.3000307002083616            0.0                           
6.250022850533095             0.30004058662403305           0.0                           
6.500042100781306             0.30000622983573405           0.0                           
6.7499975022518415            0.30004509727345285           0.0                           
7.0000465503074984            0.29997929062153333           0.0                           
7.249969827555462             0.30004926413452687           0.0                           
7.500050551405779             0.299950279409246             0.0                           
7.749940229830541             0.3000530461329771            0.0                           
8.000054265873029             0.29991963516474845           0.0                           
8.249909103228966             0.30005668206089037           0.0                           
8.500057892809185             0.29988758259021037           0.0                           
8.749876590458122             0.30006035828282274           0.0                           
9.000061629071501             0.2998541122744018            0.0                           
9.249842605398365             0.30006428659688406           0.0                           
9.500065688497672             0.29981898309182237           0.0                           
9.74980683071274              0.3000686727965536            0.0                           
10.000070266945551            0.2997817343588126            0.0                           
0.00010870430829681511        0.6000213520628346            0.0                           
0.2500232071202221            0.6001032030824505            0.0                           
0.5001000650298627            0.6000272606990434            0.0                           
0.7500294407099742            0.600092899734843             0.0                           
1.0000888349815966            0.6000340492094839            0.0                           
1.2500364515640094            0.6000796708187736            0.0                           
1.5000745530162096            0.6000413839865071            0.0                           
1.750043886660945             0.6000632244391327            0.0                           
2.0000570144008476            0.60004889962706              0.0                           
2.250051386070222             0.6000435254635303            0.0                           
2.5000362624393424            0.6000562680099912            0.0                           
2.750058648280215             0.6000207496604221            0.0                           
3.000012522915025             0.6000632723693201            0.0                           
3.2500655185167076            0.599995217527763             0.0                           
3.499986180804959             0.6000698561142622            0.0                           
3.750071924925057             0.5999674084052529            0.0                           
3.999957699466707             0.6000758631301725            0.0                           
4.250077753760548             0.5999377144318956            0.0                           
4.49992746580101              0.6000814324909002            0.0                           
4.750083241064332             0.5999065025100184            0.0                           
4.999895797397943             0.6000868512759981            0.0                           
5.250088676378298             0.5998739416001814            0.0                           
5.499862782277027             0.6000924277124314            0.0                           
5.750094378571901             0.5998399560877932            0.0                           
5.999828262299999             0.6000984900513872            0.0                           
6.250100672600163             0.5998042248980071            0.0                           
[...]
POINT_DATA  4141
SCALARS Con float 1
LOOKUP_TABLE default
0.0016431541240539442
0.0017983487352294196
0.002106967245471353
0.0024686713825289863
0.0028784685611119784
0.0033377150087480338
0.0038474772686329568
0.004408005726138729
0.005018663097639276
0.005677918822489588
0.006383379716674011
0.007131851842756929
0.007919427391645792
0.008741586547651916
0.009593299367182393
0.010469100717706034
0.01136314682812544
0.012269151743712188
0.013182582834663902
0.014110084622620212
0.015141630547130719
0.016187842240606792
0.017154186110439028
0.018079456555626667
0.019012003458134686
0.019949636465661193
0.020893832355603863
0.021846776694179806
0.022812048805332448
0.02379434611759518
0.024799333239953734
0.02583350018112702
0.026904035680387312
0.028018704453006794
0.02918572364411461
0.030413635252945537
0.03171116559926012
0.03308692967870057
0.034546795712398666
0.03605384647892683
0.03691814837316793
0.0016764132979104303
0.0018355178027729415
0.0021506385513482564
0.0025193644611142944
0.0029367212811989216
0.0034039397683086627
0.0039219591985736706
0.004490894677624488
0.0051099722478078905
0.005777529260719281
0.00649105217512039
0.0072472477899011645
0.00804214450091673
0.008871220399321547
0.009729558306796117
0.010612053603088211
0.011513723644919024
0.012430807471261136
0.013361936902632522
0.014331227012218785
0.015318037816457292
0.016293259576499134
0.017249952554824692
0.018204101260263193
0.019147601758652585
0.020090992282540854
0.02103792871497311
0.021992345025750426
0.022958650972196754
0.02394205749338988
0.024948579939233276
0.025984980980932725
0.027058680342479904
0.02817764952238277
0.029350296501883037
0.030585341886534216
0.03189167877137467
0.033278077797571796
0.03475047090336239
0.03627238961401947
0.037146162320656505
0.0016612374224651736
0.0018201193187503736
0.0021356495422130664
0.0025056665966179843
0.0029251032108280114
0.0033951612370483083
0.003916729842987738
0.004489866335420583
0.005113735134730021
0.005786614166338038
0.006505941477951951
0.007268401302809754
0.008070052033354366
0.008906504209754664
0.00977317360721899
0.010665659940267726
0.01158045912336943
0.012515686262864853
0.013475200164063065
0.01443331608066074
0.015361783757235313
0.01629733989207614
0.01726315943762108
0.018225182170147902
0.01917970827963209
0.02012818626743843
0.02107610000745594
0.022028342503704373
0.022990127123600775
0.02396718712546936
0.024965913778395837
0.025993370956535356
0.02705725223548802
0.028165803633123005
0.029327725508823746
0.030552059055644832
0.0318480502977157
0.033224841637481586
0.03468872865005018
0.03620300163874886
0.03707224224074028
0.001634659635551597
0.001793540482800007
0.002109849656737169
0.002481959701304373
0.0029048060773864833
0.00337952389966677
0.003906917148158757
0.004486942206943068
0.005118653332041384
0.0058002153626427215
0.006528958239623185
0.007301473528936575
0.00811375579631335
0.008961394010863108
0.009839816404334099
0.010744590319659497
0.011671571065629193
0.012616915542620144
0.013569861624894009
0.014518033365328841
0.015460040616549854
0.016400839543350365
0.017347449531135907
0.01830141156508818
0.01925240546915531
0.020198701295555878
0.021142405542692203
0.022087824497196283
0.023040152231856157
0.024005349715745705
0.024990102043081715
0.026001798750783456
0.027048488593433596
0.028138810339512377
0.029281902911472257
0.030487296802448147
0.03176477610002526
0.03312405518396379
0.03457199799929314
0.0360726996727642
0.03693535797757231
0.0015970836693889635
0.0017559590851931345
0.002073437408646306
0.0024485666799701194
0.002876270553394572
0.003357591549926055
0.0038932079025385965
0.004482927201072453
0.005125636960576286
0.005819321475296239
0.0065611189793300115
0.007347417770197613
0.00817398928257615
0.009036149748724027
0.009928927077027213
0.010847145720193076
0.011785319130942377
0.01273638692504117
0.013692482628145992
0.014646901093378262
0.01559628762436627
0.016542354978201678
0.017487693617237173
0.01843190215830315
0.019373612615936227
0.020310729722782705
0.02124417713109977
0.022177103201484596
0.023114264623377994
0.024061555306080572
0.02502581899888991
0.026014740881896342
0.027036766062313932
0.028101016695339504
0.029217198261398653
0.030395489179409905
0.03164639855536323
0.03298043903140731
0.03440536959604589
0.035886765672047766
0.036740323274529404
0.0015481675312749579
0.0017070931603263854
0.0020261804826216473
0.002405313524338798
0.002839388455273456
0.003329320001587691
0.0038756181526450875
0.004477890947984161
0.005134798823176428
0.005844072334099843
0.006602566705151952
0.007406349753016054
0.008250816675260128
0.009130816644175753
0.010040757590524403
0.010974644616173253
0.011925928846501161
0.01288767197470084
0.013853024086607156
0.014816353066860365
0.01577438400736851
0.016725958956754362
0.017671050655010484
0.018609664512213003
0.01954117621651373
0.020465526033789906
0.021383745307581553
0.022298655042592663
0.023214690771582995
0.02413765972429295
0.025074527148441206
0.026033272482878896
0.027022778559602393
0.028052732940262882
0.029133527182490366
0.030276144387469776
0.03149201906994097
0.03279272063190004
0.03418726863716569
0.03564309131490756
0.036484327724806295
0.001487581797097578
0.0016466376057023646
0.0019678371233397465
0.0023520290301220896
0.0027940620506170326
0.003294686090484297
0.003854199328396406
0.004471960110155056
0.005146342992463862
0.00587475452179809
0.006653682231891482
0.007478772900610203
0.008344933405404485
0.009246441336802403
0.01017704933239833
0.011130065794435913
0.012098498717611967
0.013075311838828223
0.014053935411549293
0.01502887769748286
0.015996139664373403
0.016953259566641864
0.01789891140391362
0.01883241047415591
0.019753605739058225
0.020662981307627167
0.021562131210744906
0.022454009055821424
0.023343063527560735
0.024235162191241957
0.025137466662881483
0.026058306654618116
0.02700706932849895
0.027994097630370807
0.0290305892982492
0.030128488057475932
0.03130035163475441
0.03255905249695803
0.033915130681086106
0.035338228059121235
0.036163521849849625
0.0014150557647753016
0.0015743448456225586
0.0018982126577422763
0.00228858467402117
0.0027402344799131407
0.003253708208841619
0.003829050341244928
0.004465323634675585
0.005160564417058474
0.005911793953731077
0.006715060703317033
0.0075655111643618085
0.008457485766608258
0.009384634591005579
0.010340049293066738
0.011316427569191297
0.012306292178989967
0.013302307708078645
0.014297671084355479
0.015286505573480907
0.016264139071580475
0.017227173460805822
0.0181733810342663
0.01910155389068244
0.02001141208204401
0.020903687876246073
0.021780271338940803
0.022644392427056844
0.02350070897715401
0.024355317726964205
0.02521569611832807
0.026090618218553106
0.02699006450418504
0.027925132280706137
0.028907944922131303
0.02995155452923616
0.031069823525434775
0.032277139571052806
0.03358581293920931
0.03496816085995054
0.03577339225242819
0.0013304641066295524
0.0014900978393932746
0.0018172197973399425
0.002214937120987208
0.002677914239686828
0.0032064537057869586
0.0038003086753583795
0.004458208312552383
0.005177808675946055
0.0059556964611649325
0.006787423087297828
0.007667569898134707
0.008589845272033365
0.009547214000246655
0.010532062634483757
0.01153640753880185
0.012552156681758775
0.013571421174956732
0.014586854206117286
0.015591965385070742
0.016581355026395794
0.017550838213860456
0.01849747189936497
0.0194195332792303
0.02031651494609535
0.0211891577021689
0.02203953140332242
0.022871117218007535
0.02368886943697745
0.024499230556798698
0.025310107384039045
0.026130819738455345
0.026972036818197202
0.02784570896359007
0.028764996400115168
0.029744191687118168
0.030798621434442848
0.03194438308226818
0.03319581022209426
0.03452839397300228
0.035308859348208495
0.0012339283038290347
0.0013940004965043928
0.0017249467040552178
0.002131173042829213
0.00260719584044728
0.0031530356392771007
0.00376812431271227
0.004450831293698172
0.005198404085339312
0.006006959030964778
0.006871503609529811
0.007785994839455756
0.008743438451758465
0.009736032483224714
0.010755357974220855
0.011792618415886733
0.012838924111724215
0.013885609000607051
0.014924554012483117
0.01594848371994501
0.01695120494088237
0.01792777157273532
0.018874580836692148
0.019789424508048204
0.020671520852053846
0.021521549588073553
0.022341691898017334
0.023135671101906542
0.023908779524005084
0.02466788507936107
0.025421415644295373
0.026179327692051894
0.02695306610843441
0.027755520992728402
0.02860098285240793
0.029505093293159614
0.03048477693062619
0.031558013151438545
0.032741397283322336
0.03401412083131692
0.03476445985043622
0.0011259369607771544
0.0012864822608792494
0.0016217326299481781
0.002037553710413022
0.0025282729067553924
0.0030935950257223507
0.003732613133362176
0.004443327738706642
0.00522256744344519
0.006065957914230726
0.0069679253057753545
0.007921743047547497
0.00891963016085266
0.00995290628058575
0.011012204675535743
0.01208773947688731
0.013169616761753667
0.014248171240406138
0.015314303956166552
0.01635979389693942
0.01737756099990352
0.01836186803993452
0.019308461742965844
0.020214663185810264
0.02107942292427826
0.02190335392188714
0.022688751677976376
0.02343960399530704
0.024161591112315785
0.024862075627407283
0.025550084526533356
0.026236287222885384
0.02693297445874983
0.027654041217849555
0.028414974074792394
0.029232839350358586
0.030126257451010715
0.03111522586283155
0.03221880986423679
0.0334204418837555
0.034134586572374906
0.0010074832156937435
0.0011684153282971424
0.0015082478329593797
0.0019345554565713802
0.0024414389932230847
0.00302826355966553
0.0036937849475790624
0.004435649497769037
0.005250280494417553
0.006132811770609533
0.007077060836831785
0.008075555578065207
0.009119626510637071
0.010199571292252308
0.011304891407279331
0.012424593320521201
0.013547538474191448
0.01466281972017143
0.0157601375742513
0.016830149845618057
0.017864772914528544
0.018857421377817134
0.01980318231381397
0.02069892902235051
0.021543384163295976
0.022337144590078312
0.02308267927585208
0.02378430998610384
0.02444818253767266
0.025082235215933165
0.02569617044381742
0.02630143552802685
0.026911216939540603
0.02754045059882859
0.028205847421655696
0.028925929383772128
0.02972106061466062
0.03061334067992131
0.03162446437338303
0.03274264377154197
0.033413798872867696
0.0008802141818894892
0.0010412392317882806
0.0013855722015234705
0.0018229000566230527
0.0023470700701556345
0.0029571006858980634
0.0036514401516776506
0.0044274289655526705
0.005281131262638005
0.006207213346603797
0.007198869629876868
0.008247816795825327
0.00934437319711678
0.01047763244559614
0.011635730165122538
0.012806192271887031
0.013976343522789463
0.01513374783631214
0.016266648482308233
0.017364377487004604
0.018417709032428724
0.019419140385601365
0.0203630935598666
0.021246040088094626
0.022066558201043772
0.02282533609152632
0.023525136894769157
0.024170740827354646
0.024768879077639066
0.025328172012985872
0.02585908265120719
0.026373893902195054
0.026886715768947123
0.027413525192418107
0.027972237395080965
0.028582802538018443
0.029267310790522343
0.030049977644668272
0.03095521822107593
0.03197653967241457
0.03259720579805981
0.0007465822804770923
0.0009070828827392408
0.0012552636132839288
0.001703567118618727
0.002245581765281038
0.002879999052052637
0.0036050293834217853
0.004417802275642265
0.0053141138780329455
0.006288222464297302
0.0073327029408328
0.00843839077500341
0.009594439877400291
0.01078850679415479
0.012007059312817588
0.013235792993171826
0.014460126468498884
0.015665737493620692
0.016839098121052668
0.017967969461573828
0.019041823769881453
0.020052172269704484
0.020992789348404733
0.02185983531174667
0.0226518894444482
0.023369911693502766
0.024017154940054998
0.024599050668638215
0.025123089733828277
0.025598717400295373
0.026037258443021554
0.02645188456583977
0.02685763236702101
0.027271475976216118
0.02771245376373435
0.028201842080773053
0.02876335564769869
0.029423251551064036
0.030208666313407868
0.03111886840892294
0.03168092217955844
0.0006099793719754268
0.0007688673428309156
0.0011194027862953982
0.0015777788648053926
0.002137355664393708
0.002796555002832381
0.003553473619439698
0.004405188854076857
0.00534738306375311
0.0063740161837394175
0.007477073256165732
0.008646433327337999
0.009869894529831781
0.011133372599681116
0.012421269915107284
0.013716991778014114
0.015003569056482284
0.01626433419229079
0.017483593042552332
0.01864723850777457
0.019743262277342494
0.020762136160294698
0.02169705148352391
0.022544021185864176
0.02330186243793705
0.023972086891367917
0.024558730340136885
0.025068154715826775
0.025508852919898514
0.02589128307907932
0.02622775319837131
0.02653237206555348
0.026821076493515984
0.027111740718491897
0.02742436895334178
0.027781365932092517
0.028207864471838342
0.02873197945940122
0.029383466549102292
0.03016774379109778
0.03066258900684716
0.000474824457407788
0.0006303636338753826
0.0009805963943237983
0.001446949390591048
0.002022634039172519
0.002705908041649896
0.003494948846347616
0.004387029477628516
0.005377964672731855
0.006461597811682679
0.0076293913589305234
0.008870186677339482
0.010170180981275147
0.011513146181965592
0.012880885905874393
0.014253897956159016
0.015612183420739088
0.016936126276783994
0.018207360782677668
0.01940954973194811
0.02052901280733439
0.02155516719880591
0.022480768065920944
0.02330195984509285
0.024018168151242292
0.02463187404602072
0.025148317950713706
0.025575180023273594
0.02592227907792585
0.026201324772664174
0.026425749286777565
0.026610636479573242
0.0267727594751534
0.02693073226245294
0.027105277556820667
0.027319611621109328
0.027599934376492313
0.027975908438768796
0.028479681726197345
0.029123135567659962
0.029541946468334697
0.0003465551659522849
0.0004961672435027853
0.000841920569199368
0.001312595084481175
0.001901397863322384
0.0026065658493917665
0.003426645121995225
0.0043594928152250224
0.005401433678255418
0.006546477046587816
0.007785684716868454
0.009106773794135704
0.010494022804851883
0.011928518188478471
0.013388738906829728
0.01485143314356328
0.016292701678458303
0.017689175018973873
0.019019161834958772
0.02026365591194932
0.021407115217207565
0.022437963265225392
0.023348802457681516
0.024136364192292228
0.024801246882604804
0.02534750812208901
0.025782181755708282
0.02611478644900974
0.02635688206607022
0.026521717425670794
0.026623999137749123
0.02667979954503121
0.026706611906984153
0.026723554959631916
0.026751726731908114
0.026814709247869425
0.026939237257157342
0.027155967622010557
0.027499155210025123
0.027987350595887382
0.028321389520121
0.00023148386319001734
0.0003715458271658315
0.000706776198275559
0.0011762495459829696
0.0017732673671519887
0.002496219507732899
0.003344514777166553
0.00431717712356255
0.0054115901698285306
0.00662235120012007
0.007940325380558255
0.009352021357677556
0.010839387763208464
0.012380092916523387
0.013948292160199487
0.015515819627996428
0.017053678196043115
0.018533656240579743
0.019929884175235335
0.021220161159464283
0.02238692641199188
0.02341781127956024
0.024305770581763197
0.02504884612700416
0.025649651307913544
0.026114683379344854
0.026453569466825175
0.026678339837727112
0.026802801512819784
0.02684206289353616
0.026812239019899965
0.02673035011651364
0.026614413997790954
0.02648372609173423
0.026359318462166364
0.02626459426114421
0.026226137876777616
0.02627474581675705
0.026445875234587243
0.026765517396399825
0.0270066407969323
0.000139245315648275
0.0002620899881250546
0.0005788211644315476
0.0010394541033492666
0.0016373381548361848
0.002371541542159907
0.003243062730752236
0.004252879009256522
0.005400206469547375
0.006680851517045676
0.008085822205210964
0.00960036195668269
0.011203567012932866
0.01286869540649521
0.014564192179542274
0.01625534690427322
0.017906394210128348
0.019482789936770266
0.020953369348397626
0.022292123751903207
0.023479411621213257
0.024502524212148213
0.025355630787685463
0.026039210220626025
0.02655912596845702
0.026925515422668935
0.02715165267624652
0.027252912274125966
0.0272459235361026
0.02714796714895214
0.026976634654594184
0.026749749076696402
0.026485532285118508
0.026202999171474024
0.025922560070245376
0.02566681400239007
0.025461530070592063
0.025336719583816367
0.02532763899203451
0.0254659787026857
0.025606485292039047
7.16919293126513e-05
0.0001736702315866316
0.0004618812800835047
0.0009034500644048557
0.0014921535548229285
0.0022284605296436968
0.0031157782809453334
0.004158104516757281
0.005357573351740964
0.006712129972306357
0.00821349200161379
0.009845658587677908
0.011584220728255892
0.013396672835214765
0.015243797755419059
0.01708202201010415
0.018866451044047473
0.020554156072867383
0.022107233074293374
0.02349521456737193
0.02469655902014368
0.025699131337354714
0.02649976209260974
0.02710310081850569
0.027520037538789004
0.027765968519225862
0.0278591370464781
0.02781921590285793
0.027666227946169852
0.02741984238869806
0.027099040582266174
0.026722120230163134
0.02630699719556126
0.025871766758128384
0.025435495825268033
0.025019231336689703
0.024647205687935592
0.0243482688517798
0.024156541071727898
0.024108166753549265
0.02414079400800852
0.0013747426948646346
0.0021102902307358166
0.004088041224990223
0.008392316371649703
0.010158753526677571
0.01403072729333593
0.016046713596417118
0.019968555955407988
0.021765638025954187
0.024810212565525104
0.026001546844270536
0.026955513365442302
0.027673979043469785
0.028168060397430774
0.028455640468100916
0.028558856420150734
0.026066186018610046
0.02549117370151453
0.02337094772401677
0.023012259860071195
0.022720356840761364
3.4950062590676954e-05
0.00012054919381151938
0.0003791122217227732
0.0007984865656343253
0.003012032787479148
0.005344316612033712
0.00678156431896829
0.012051642607953732
0.018044695910095096
0.023390942964734235
0.0285018633645626
0.028309060508500315
0.028003857134938876
0.02760797294939042
0.02714121723761866
0.026621669464250274
0.02491359491697324
0.024352196808551795
0.023828990822950254
0.022790843270075807
2.405469803077646e-05
9.003024461567418e-05
0.0003162900783760558
0.0007083748307019623
0.0012620223443335073
0.0019811840945155273
0.002875268890955532
0.003955665183384214
0.005231841280227891
0.006707500943300271
0.008377001566034539
0.010222517962147936
0.012212493919678914
0.014301877234058652
0.016434392450473023
0.018546711285325333
0.020573938065393968
0.02245548688485701
0.024140324831747793
0.025590731057654276
0.026784107669897014
0.027712825982886085
0.028382463656433536
0.02880899922467698
0.02901557416085497
0.029029345653721898
0.028878798204326504
0.028591711185988508
0.028193834498418092
0.02770822304736414
0.027155126656852633
0.026552318020501002
0.025915753663115486
0.025260491233634042
0.02460182216747725
0.02395660871268614
0.023344864222908407
0.02279155069765853
0.02232875897692715
0.021995586035741227
0.02186116236814154
2.5994239012050215e-05
7.298403931030083e-05
0.00026882221575606264
0.0006344978587774842
0.0011661105756388898
0.0018689832290090186
0.002755381266427292
0.003840325103636398
0.005137147995908798
0.00665292729290345
0.00838412240312327
0.01031295971646621
0.012405289690728932
0.014610611873232118
0.016864682074147756
0.01909459384198369
0.021225605816830743
0.02318849064037924
0.024926020418735963
0.02639745345619582
0.027580440838434535
0.028470404272359102
0.02907793579763463
0.02942502369461715
0.02954091957991135
0.029458301679408844
0.02921015251054804
0.02882753404525193
0.028338259325325653
0.02776634539976856
0.027132083373031683
0.026452561746732405
0.025742509200388897
0.02501536630926329
0.024284538897196475
0.02356483586912419
0.022874075934258466
0.022235072357992366
0.02167704833962298
0.021244559607034835
0.021056145240563293
3.724595306449975e-05
6.49352663723784e-05
0.0002287691470441355
0.0005655493322156424
0.0010721567584154065
0.0017554479402614716
0.0026308854654746444
0.0037177038530371354
0.00503379712943225
0.006590361648766621
0.008386590621733678
0.010405084135779142