# vtk DataFile Version 2.0
time_10.vtk
ASCII
DATASET UNSTRUCTURED_GRID
POINTS   4141  float 
2.8844612302382686e-05        -1.4966370796762423e-17       0.0                           
0.2499999999999994            2.7286116245058734e-05        0.0                           
0.5000264197577905            -2.594422594000485e-16        0.0                           
0.75                          2.4484735857308414e-05        0.0                           
1.0000234067387157            1.3552609030021975e-17        0.0                           
1.25                          2.1012059435882975e-05        0.0                           
1.500019690714753             9.9496558627478e-16           0.0                           
1.75                          1.6794599804653037e-05        0.0                           
2.000015220138434             3.7450676882964534e-18        0.0                           
2.25                          1.18251790690354e-05          0.0                           
2.5000100097643605            1.2737143945728878e-17        0.0                           
2.75                          6.1627806145280715e-06        0.0                           
3.0000041442052012            -9.33525956972237e-18         0.0                           
3.25                          1.0296037013131389e-16        0.0                           
3.49999767670096              7.037426643015618e-16         0.0                           
3.75                          -7.015179078150148e-06        0.0                           
3.999990588938693             -3.4744446976157285e-17       0.0                           
4.25                          -1.431040376378007e-05        0.0                           
4.499983189400454             -1.4654027130398812e-15       0.0                           
4.75                          -2.1903965288989566e-05       0.0                           
4.999975504794443             -2.6887377625254054e-17       0.0                           
5.25                          -2.9766682127267874e-05       0.0                           
5.499967550992987             -1.2447322165423655e-16       0.0                           
5.75                          -3.791773663116594e-05        0.0                           
5.999959289208476             2.7132077937474594e-17        0.0                           
6.25                          -4.643636984449823e-05        0.0                           
6.499950620281385             4.6099138672361135e-16        0.0                           
6.75                          2.876485151269158e-05         0.0                           
7.000028013672335             2.1724589217717435e-06        0.0                           
7.2500023206827375            2.634288031089797e-05         0.0                           
7.500025411379374             2.6444153739222433e-06        0.0                           
7.750002818097732             2.333098101770373e-05         0.0                           
8.000022174170443             3.183731208019326e-06         0.0                           
8.250003373347502             1.9613548557938572e-05        0.0                           
8.500018206719307             3.7601897116170475e-06        0.0                           
8.750003955054503             1.5138690731840135e-05        0.0                           
9.000013479356134             4.342075225503671e-06         0.0                           
9.250004532167049             9.920300324391602e-06         0.0                           
9.500008026721872             4.900804785993752e-06         0.0                           
9.750005077556981             4.0299705892619165e-06        0.0                           
10.000001929631509            5.412064544259123e-06         0.0                           
5.596914729420451e-06         0.2999975205751823            0.0                           
0.24999522047488965           0.30000592356306227           0.0                           
0.5000060671641253            0.29999047551004154           0.0                           
0.7499880432893247            0.30000634338548604           0.0                           
1.0000064765552963            0.29998307410605346           0.0                           
1.249980541403815             0.3000067357964979            0.0                           
1.500006863478908             0.2999753865295587            0.0                           
1.7499727651869208            0.30000711978367606           0.0                           
2.0000072505431454            0.2999674314208869            0.0                           
2.24996471541716              0.3000075228939256            0.0                           
2.5000076667564772            0.299959170422347             0.0                           
2.7499563332718013            0.3000079753370999            0.0                           
3.0000081420722813            0.299950504070027             0.0                           
3.249947499973853             0.3000085047521097            0.0                           
3.5000040623021578            0.30002777753097004           0.0                           
3.7500269752323225            0.30000463592303134           0.0                           
4.00000495179166              0.3000251825508288            0.0                           
4.250024181193506             0.30000563309040257           0.0                           
4.500005994349056             0.3000219463896996            0.0                           
4.7500207065122035            0.3000067465555451            0.0                           
5.0000071326883715            0.3000179720282397            0.0                           
5.250016476029841             0.3000079130563632            0.0                           
5.5000083027187685            0.3000132290346779            0.0                           
5.750011481218137             0.30000907053409076           0.0                           
6.000009445038018             0.3000077491103418            0.0                           
6.250005770428863             0.3000101683193998            0.0                           
6.500010516348147             0.3000015977094127            0.0                           
6.749999415507135             0.3000112005474975            0.0                           
7.000011529047043             0.29999487993770996           0.0                           
7.2499925327658055            0.30001213346654865           0.0                           
7.500012415936513             0.2999877047550263            0.0                           
7.749985233579931             0.3000129562016395            0.0                           
8.0000132170832               0.29998019254466146           0.0                           
8.249977626630582             0.30001372868075277           0.0                           
8.500013983221965             0.2999724085513233            0.0                           
8.74996975598053              0.3000145003628956            0.0                           
9.000014767459845             0.29996435691415324           0.0                           
9.249961605285712             0.3000153301759662            0.0                           
9.500015630303276             0.29995597912533956           0.0                           
9.749953094879437             0.30001627863669755           0.0                           
10.000016630565371            0.2999471548501202            0.0                           
2.812598621638523e-05         0.6000060776158191            0.0                           
0.2500064934363268            0.6000265862869241            0.0                           
0.5000257274233404            0.6000074156574461            0.0                           
0.7500079172179489            0.6000238015970707            0.0                           
1.0000227247518363            0.6000089860683456            0.0                           
1.2500095464854857            0.6000203246094801            0.0                           
1.5000189964550772            0.6000107011743552            0.0                           
1.7500112881425143            0.6000160783126036            0.0                           
2.0000144885450575            0.6000124637674921            0.0                           
2.2500130459478385            0.6000110537403966            0.0                           
2.500009212999145             0.600014185027788             0.0                           
2.75001473760382              0.6000052985655231            0.0                           
3.000003231165118             0.6000158038405301            0.0                           
3.2500163176772285            0.5999988998430998            0.0                           
3.4999966470791093            0.6000173003355931            0.0                           
3.750017763187374             0.5999919863421044            0.0                           
3.999989585878614             0.600018631983905             0.0                           
4.250019043230969             0.5999846661862711            0.0                           
4.499982154515867             0.6000198331232305            0.0                           
4.7500202170401415            0.5999770406536619            0.0                           
4.999974441409023             0.6000209772492878            0.0                           
5.250021359877934             0.5999691597812923            0.0                           
5.49996647556468              0.6000221470729735            0.0                           
5.750022558617289             0.5999610095243155            0.0                           
5.999958220901039             0.6000234349302738            0.0                           
6.250023906321469             0.599952509507141             0.0                           
[...]
POINT_DATA  4141
SCALARS Con float 1
LOOKUP_TABLE default
0.00013261362530301806
0.00014241663723874943
0.00016181811540040022
0.00018446467314608197
0.000210019644833573
0.00023855034220289487
0.0002701076486793771
0.00030469225252101784
0.00034224956936357396
0.00038266874308729446
0.00042578390991223724
0.00047137748548893555
0.000519185141912266
0.000568901877893213
0.0006201882039371429
0.0006726746927489294
0.0007259641556398165
0.0007796284071373148
0.0008333112455190814
0.0008875053073358484
0.0009482381913776131
0.0010091143200966078
0.0010638914862053917
0.0011159795700047854
0.0011680269901613556
0.0012198781976504368
0.0012716069422388423
0.0013233521467445528
0.0013753490347454668
0.0014279115278190777
0.0014814229806962946
0.0015363281866339693
0.001593126608567241
0.0016523661168761617
0.0017146368129654329
0.0017805645803855524
0.0018508033058958259
0.0019260144626367826
0.0020066844928788574
0.0020906413654604014
0.0021389860696098204
0.0001346321867302705
0.00014466294234996807
0.0001644560348975307
0.00018752437612842214
0.00021353218418554879
0.000242538729723262
0.00027458686294721754
0.0003096687781619439
0.0003477213417380665
0.00038862546476474625
0.00043220782579108297
0.00047824476839952
0.0005264682191056067
0.0005765734701051779
0.0006282288617633449
0.0006810888603453982
0.0007348143103847312
0.0007891377301154883
0.0008439707931284533
0.0009006649072057202
0.0009579842045729491
0.0010143366858741435
0.0010690463231079795
0.0011228291736794776
0.0011754794014042906
0.0012276065400478966
0.001279431707168298
0.0013311993010754971
0.0013831943446979253
0.0014357611132050122
0.0014893035029748887
0.001544282103844432
0.0016012096482477052
0.001660645790685955
0.001723191459611086
0.001789482642567515
0.001860182639601744
0.001935961853616425
0.0020173121867805414
0.0021020974466305635
0.0021509757430838404
0.00013349351535044905
0.00014352027992223682
0.00016335570355150735
0.000186524512436148
0.00021268314873840082
0.0002418879149504808
0.0002741775600606446
0.0003095398546768777
0.00034790713874019517
0.00038915605990663964
0.000433109843620737
0.00047954310818975644
0.0005281894334048443
0.0005787522159448521
0.0006309203613224938
0.0006843920472261934
0.0007389188099270472
0.0007943567067637829
0.0008508979970524458
0.0009070508100595864
0.0009607534713669675
0.001014329090223319
0.0010695091880040708
0.0011239329433603222
0.0011772832810421927
0.0012297250653370644
0.0012816064335804487
0.0013332398413641012
0.0013849616999790388
0.0014371484271066748
0.0014902259994243458
0.00154467179870502
0.001601013044217977
0.0016598233540212734
0.0017217181830379395
0.001787349353108707
0.0018573978227689988
0.0019325536291211463
0.002013332882782213
0.0020976096965266687
0.002146212415150583
0.0001315203249020925
0.00014156249710226614
0.00016147743558845096
0.0001848127430783496
0.00021122246520066475
0.00024075683688797923
0.0002734477118133934
0.0003092752065983623
0.0003481636217493285
0.00038998155397108067
0.000434544640773208
0.00048162101068697187
0.0005309396644540381
0.0005822021440531743
0.0006350977546769581
0.0006893224718428391
0.0007445900084223434
0.0008006322933435244
0.0008567778456373401
0.0009121708737503463
0.0009667340185154469
0.0010207480000374758
0.0010746116131045086
0.0011284670352497282
0.001181614903650351
0.0012339293495978883
0.0012855606462556241
0.0013367894136240147
0.0013879542266364536
0.0014394463744543137
0.0014917091664070942
0.0015452380061940726
0.0016005789042971672
0.001658325694667253
0.0017191162093835534
0.001783627462667855
0.0018525689920146102
0.0019266634163759343
0.002006463404279879
0.0020899029204685116
0.002138097620575082
0.00012873075109537423
0.00013879553882903208
0.0001588278205211004
0.00018240276247755429
0.00020917001260075817
0.0002391714481858075
0.0002724288612460984
0.00030891115819233893
0.00034853055721992206
0.0003911429331766913
0.00043655070743243567
0.0004845082701761634
0.000534729863125095
0.0005868994747934459
0.0006406813979971226
0.0006957263368486444
0.0007516659495818885
0.0008080385297165141
0.0008643193040326237
0.0009200703178180212
0.0009750448124546651
0.0010293383888537923
0.0010831120922568619
0.0011363164665144164
0.0011888619643905935
0.001240608692506654
0.0012916181119406631
0.0013421007384400517
0.0013923697696792492
0.0014428130733859048
0.0014938827763803027
0.0015460899263155387
0.001600000939361313
0.0016562342033825002
0.001715456384479584
0.0017783780370458802
0.0018457474978760661
0.0019183320373605804
0.001996737141175726
0.0020789796286246618
0.0021265848288263734
0.00012509994807301204
0.00013519845344348356
0.00015539015396943254
0.00017928249339415426
0.00020651870446812502
0.00023712940711351847
0.00027112305706304126
0.0003084536100505139
0.00034901691424910487
0.00039265108428984696
0.0004391392248371702
0.0004882143649679174
0.0005395662754047574
0.0005928493204686171
0.0006476893740864378
0.000703687024489038
0.0007604093524979991
0.0008173978345731431
0.0008742009395635556
0.0009304387768396509
0.0009858892852796554
0.0010404689014643228
0.0010941685893145077
0.0011469838898638016
0.0011988663609800514
0.0012498120929624345
0.0012998916992788408
0.0013492941044694101
0.0013983135329246866
0.0014473326452246987
0.001496809710418129
0.0015472707250519164
0.0015993040756996613
0.0016535563977021462
0.0017107288105014233
0.0017715729187349762
0.0018368853395431602
0.0019074897598110277
0.001984059100502209
0.0020647181257564258
0.0021115398245276067
0.00012060292355428353
0.0001307485250592832
0.00015114682556126736
0.00017543994689302764
0.00020326228821953744
0.00023463017579635083
0.00026953537839867974
0.00030791319470194515
0.000349638903435717
0.0003945279938194525
0.00044233855548855155
0.0004927756571128233
0.000545497386723933
0.0006001218334209243
0.0006562340187244823
0.0007133915820449312
0.0007711338192857781
0.000828998004238261
0.0008865504231529094
0.000943428595506203
0.0009993684869109756
0.001054210032940818
0.0011078690191311177
0.0011603020452020196
0.0012115010960378543
0.0012615004276593056
0.0013104095527305892
0.001358427598024763
0.0014058502399380453
0.001453063665291815
0.0015005363784989026
0.0015488120241382794
0.0015985039336642054
0.0016502909346579888
0.0017049138796738856
0.001763172279618352
0.001825919760163192
0.0018940473754464437
0.001968309568358173
0.0020469649473602394
0.0020927890132144806
0.00011521759271225247
0.00012542599298033522
0.0001460828953958526
0.00017086576216101193
0.00019939726447038738
0.0002316762678438675
0.00026767460377519393
0.00030730546267701444
0.0003504197337364841
0.0003968059428281854
0.0004461922324301241
0.0004982503352598326
0.0005526013850389904
0.0006088232853247347
0.0006664593573412794
0.0007250290705850222
0.0007840421747939569
0.0008430187738848585
0.0009015150957517979
0.0009591496645332028
0.0010156231099879601
0.0010707226056112507
0.001124313898490257
0.0011763297368231264
0.001226762656575061
0.001275670986333644
0.0013231881959356157
0.0013695340959080022
0.0014150189564902849
0.0014600428772399766
0.0015050914964313909
0.0015507310359425437
0.0015976039497680595
0.0016464255391384491
0.001697981369557368
0.0017531250214665643
0.0018127749230394527
0.001877899454626829
0.0019493479190347532
0.0020255398214986224
0.0020701283999886985
0.00010893032996603037
0.00011921878721057016
0.00014018993583653712
0.00016555597538373332
0.00019492452999744905
0.00022827381406680854
0.0002655527439708969
0.0003066494275058815
0.0003513871532904567
0.00039952381750602174
0.00045075340869735506
0.000504709676179493
0.0005609720959826679
0.0006190741650622682
0.0006785142000511816
0.0007387689692344463
0.0007993107702459035
0.0008596279199788803
0.0009192472445225618
0.0009777554554043148
0.001034814946778554
0.0010901716960060941
0.0011436556286630747
0.0011951772634873918
0.001244725766212615
0.0012923698874479088
0.0013382623776552614
0.001382644066120235
0.001425846396269089
0.0014682909869935038
0.0015104872956379432
0.0015530294853690159
0.0015965935942753844
0.001641935519849789
0.0016898898951060164
0.0017413695219004536
0.0017973641707231215
0.0018589281775116056
0.0019270179700298234
0.002000241805118591
0.002043329593466418
0.00010174254500391566
0.00011212840133977036
0.00013347048576091785
0.00015951497131563703
0.00018985079827000916
0.00022443246856775154
0.0002631835049477562
0.00030596469241424203
0.0003525693098268075
0.00040272170093918715
0.00045607802831318676
0.0005122295723800409
0.0005707089264775751
0.0006309993258266495
0.0006925472495960095
0.0007547783255045257
0.0008171162846726639
0.0008790041525019213
0.0009399260248984685
0.0009994270168209962
0.0010571290119923804
0.0011127407069928654
0.0011660622464388913
0.0012169862787195346
0.0012654976065072918
0.0013116732431203895
0.0013556829867663323
0.0013977900780640946
0.0014383510513075375
0.0014778145406199078
0.0015167192954372495
0.0015556921601915159
0.0015954466432276172
0.0016367825524919207
0.0016805867883864498
0.001727835035602663
0.0017795932105123034
0.0018370083961339442
0.0019011547433799238
0.001970857530175971
0.002012148857040537
9.367858631202384e-05
0.00010417678193336491
0.00012594307965859853
0.00015275850693659856
0.0001841895882776253
0.0002201644208890817
0.0002605794826977412
0.0003052670476095809
0.0003539890333525638
0.0004064341460798521
0.0004622174539644812
0.0005208830413946173
0.0005819103114104819
0.0006447242899178391
0.0007087099814706283
0.0007732304873178319
0.0008376481313675619
0.0009013473347334331
0.0009637574575406619
0.0010243736009047397
0.0010827735304167144
0.0011386296600551583
0.0011917160735882572
0.001241911477986456
0.001289199487766196
0.0013336674306170838
0.0013755045257448752
0.0014149996034350425
0.0014525386184955265
0.0014886020254637612
0.0015237624623558848
0.0015586832369751714
0.0015941181180194497
0.0016309127544748875
0.0016700077813689813
0.0017124433619040706
0.0017593640156665243
0.0018120138637853478
0.001871593020537194
0.0019371718874358424
0.0019763388754357996
8.479492411290632e-05
9.541421719804886e-05
0.00011764769020097086
0.0001453165668914467
0.00017796149131848123
0.00021548220749041853
0.0002577477681860767
0.00030456225828635777
0.00035565631042584295
0.000410681944654129
0.00046921025510741497
0.0005307329289776752
0.0005946684243440854
0.0006603732712349115
0.0007271584482929851
0.0007943102595127154
0.0008611145449751199
0.000926882559843482
0.0009909764975859305
0.0010528326185809992
0.0011119802253555786
0.001168055446733926
0.0012208095819993218
0.0012701125876500394
0.001315952746041412
0.001358433716953953
0.0013977700832223654
0.0014342822246402646
0.0014683912726818104
0.0015006147238165208
0.0015315633078019043
0.0015619396555090277
0.0015925391857163791
0.0016242534613672252
0.0016580760271430403
0.0016951104166012987
0.00173657919045295
0.001783824569374824
0.0018381777009385109
0.0018989812504708126
0.001935663515487191
7.519044623742558e-05
8.592795930899486e-05
0.00010865128868057066
0.00013723569445512447
0.00017119332645508013
0.00021039488957025197
0.0002546835356082795
0.0003038376182292798
0.00035755852057990493
0.0004154619199357336
0.0004770725378421836
0.0005418238064719297
0.000609063629709174
0.0006780668429988654
0.0007480542546939535
0.0008182173593260628
0.0008877470821677191
0.0009558643519649093
0.0010218500044560377
0.0010850716077777513
0.0011450052256244854
0.0012012509364007155
0.0012535417190922998
0.0013017462689217613
0.0013458667711122082
0.0013860331135374688
0.0014224950261528737
0.0014556134735111128
0.0014858526014544014
0.001513773120877838
0.0015400280303047816
0.0015653612429001199
0.0015906095715093422
0.0016167082706257893
0.0016447000843121445
0.0016757474398318788
0.0017111466391414737
0.0017523350503939885
0.001800775889445059
0.0018561092771432867
0.0018899156231470535
6.501730511713869e-05
7.585106850297262e-05
9.90529754806416e-05
0.00012858028608701155
0.00016391568898162888
0.00020490215727591698
0.00025136116685970213
0.00030305078676001507
0.0003596479163532798
0.00042073417517773313
0.0004857862011600552
0.0005541724414525132
0.0006251581391070008
0.0006979193254725794
0.0007715656012179939
0.0008451703864637002
0.00091780631668135
0.0009885827615849169
0.0010566821803508054
0.0011213921717166111
0.001182130811993733
0.0012384637728538388
0.0012901128958587242
0.0013369568754092764
0.0013790255427507676
0.0014164896441708707
0.001449648201655015
0.0014789154058017415
0.0015048086948071045
0.0015279394233046085
0.0015490070853636999
0.0015687978249144974
0.0015881876366492704
0.0016081504400026847
0.0016297709394156668
0.0016542618908790704
0.0016829845046749132
0.001717463599460057
0.0017592905949302563
0.0018084251776798994
0.0018389378715222625
5.449129335161641e-05
6.537049301537389e-05
8.898788285797276e-05
0.00011943219495466292
0.00015615846254657666
0.0001989860146074816
0.00024772258968700287
0.0003021155564236447
0.0003618259508598667
0.00042640641618899185
0.000495284808608979
0.0005677566915904661
0.0006429890912906417
0.0007200366502305122
0.0007978698412182229
0.0008754132719791446
0.0009515908016865463
0.0010253731641500057
0.0010958234886382283
0.0011621365232303026
0.001223668341166489
0.0012799547542850422
0.0013307182338688057
0.0013758645048408118
0.0014154710045360497
0.001449770031748069
0.0014791293786702514
0.0015040332118310075
0.0015250652958049597
0.001542896316058995
0.0015582763878924772
0.0015720334969012088
0.0015850781944518777
0.0015984146722940826
0.0016131581242121574
0.0016305580599920136
0.001652026430847376
0.0016791621755428553
0.001713675738199807
0.0017558640935174672
0.0017826462029814822
4.389998259268992e-05
5.473283517062638e-05
7.862863027737876e-05
0.00010988806967513143
0.00014794410480023756
0.0001926001289399144
0.0002436629059481114
0.00030088447819749713
0.0003639243359050568
0.0004323152667619349
0.0005054371551747382
0.0005825031998426206
0.0006625618432364497
0.0007445160595162323
0.0008271594625390349
0.0009092264634011572
0.0009894515839661761
0.0010666316873628697
0.0011396844936807315
0.0012076974332441012
0.001269962551206305
0.0013259954002824354
0.0013755381389661285
0.0014185489766577511
0.0014551815508246847
0.0014857582394271263
0.0015107415548579126
0.0015307070883179982
0.0015463207438974444
0.001558322197300924
0.0015675156848718149
0.0015747686908060487
0.0015810186776296317
0.0015872877694953487
0.0015947052851880983
0.0016045379945511303
0.0016182274812399043
0.0016374275231669346
0.0016639519600712153
0.0016984489117524123
0.0017210556874345734
3.3605501559434875e-05
4.424530218283926e-05
6.818316085558103e-05
0.00010005401970403142
0.0001392794772822446
0.00018565762849085744
0.00023901356410621118
0.0002991286466715558
0.00036568324480799495
0.00043820509736307246
0.0005160291661155625
0.0005982747888483719
0.0006838448575192043
0.0007714495381888584
0.0008596539361310535
0.0009469456696457767
0.0010318150846175633
0.0011128387518581759
0.00118875635760305
0.0012585324510455233
0.001321397195746949
0.0013768639161675317
0.0014247246696748434
0.0014650278608048623
0.0014980436169898447
0.0015242230297512884
0.0015441569229925254
0.0015585387616489032
0.0015681347950738007
0.001573763499028459
0.001576285067663996
0.0015766011671434904
0.0015756646245362056
0.001574498643681619
0.001574225199136232
0.0015761025545325419
0.0015815725009370298
0.001592313150659911
0.0016102243875780924
0.0016363121443390787
0.0016543050458650373
2.40398471224623e-05
3.42691120478858e-05
5.788662088349694e-05
9.004045701197389e-05
0.00013014846396583503
0.0001780171680848303
0.0002335237068134431
0.00029651600230580624
0.0003667282937484859
0.0004437059688865573
0.000526745692756645
0.0006148592513714759
0.0007067682331595058
0.0008009337303535585
0.0008956208250890551
0.0009889919390448732
0.0010792181362145096
0.0011645938574210378
0.0012436400769917652
0.0013151831332944997
0.0013784013931189532
0.001432837731978916
0.0014783812735766524
0.0015152257854936589
0.001543813946734246
0.0015647766955173372
0.0015788754010956445
0.0015869525056215266
0.0015898940452145455
0.001588605574826973
0.0015840016429453513
0.001577008154100487
0.0015685765979566314
0.0015597091633341945
0.001551493998438217
0.0015451504051984344
0.0015420839990315908
0.001543953384457315
0.0015526974453142117
0.0015697186971605564
0.0015826895882248334
1.5676983512156208e-05
2.519910497084282e-05
4.7999449338466194e-05
7.996127999780447e-05
0.00012049868134659272
0.00016946636409616092
0.00022684262460540895
0.0002925922997066847
0.00036655038359925673
0.0004483141271880207
0.0005371549862315582
0.0006319620726424434
0.0007312287335263458
0.000833089832648858
0.0009354104908784174
0.0010359179873307073
0.0011323598909539472
0.0012226654463788815
0.001305086613162118
0.0013782993730360282
0.001441454835392788
0.0014941793673225786
0.0015365318256295262
0.0015689311202462212
0.001592069179225065
0.0016068228450026572
0.0016141749926286875
0.0016151513247546474
0.0016107757808563497
0.0016020448882768186
0.001589919726561227
0.001575333460213178
0.0015592125132615692
0.0015425094827548399
0.0015262469163827815
0.001511571182823684
0.0014998168661451313
0.0014925760644817483
0.001491758214946055
0.0014990728473866113
0.001506634078909511
9.066379072005149e-06
1.7471685496637355e-05
3.8803110314791055e-05
6.990983770834931e-05
0.00011023436815575201
0.0001597318510787156
0.00021853669948248395
0.00028679920577112916
0.0003645216943395379
0.00045140611626425756
0.0005467240903459068
0.0006492282873898294
0.000757123726906435
0.0008681134102813976
0.0009795217771064238
0.0010884848633528493
0.0011921801869293565
0.001288059292966588
0.0013740441246919593
0.001448657509618161
0.0015110736900120695
0.001561092311857142
0.0015990528334862261
0.0016257133559746128
0.0016421178307574477
0.001649471346046058
0.0016490361765380528
0.0016420548684559129
0.001629701393834982
0.001613058060026565
0.0015931143417826823
0.0015707835621027947
0.0015469339633562105
0.0015224317899244183
0.0014981951837296577
0.0014752587791669895
0.0014548490160092528
0.0014384724658741983
0.0014279609398681007
0.001425281301553277
0.0014270623428973225
0.00010185430763984154
0.00015166834550159127
0.00028265457226086854
0.0005596672228461441
0.0006709105441069325
0.0009098060029370985
0.0010312084555128631
0.0012602128966911724
0.0013612309253870206
0.001524512183697157
0.0015845591795842118
0.0016301118805009981
0.0016619390379601132
0.0016812641288780218
0.001689576183497191
0.0016884653371287612
0.0015312953968607426
0.0014997367233178863
0.0013849994306360277
0.0013656136099242508
0.0013499082962469056
4.8533157221356056e-06
1.226498776563631e-05
3.2006862136191266e-05
6.199758388808894e-05
0.00021180129340924911
0.0003644535976198281
0.0004570359562134656
0.0007885805603665146
0.0011491795236984665
0.001449845697558754
0.0016794967460526371
0.0016641263981212373
0.0016436556952838187
0.0016192182509366067
0.0015917916530468852
0.0015622275588747254
0.0014683293825584606
0.0014379622014985649
0.0014097229981882653
0.0013536529064675713
2.99623653727615e-06
9.190508080352037e-06
2.7030057941622847e-05
5.544238606776762e-05
9.404239251158926e-05
0.00014303685754262955
0.0002029556181815751
0.00027441172564036535
0.00035784074873064026
0.00045324701396907627
0.0005599723852759936
0.0006765234456547657
0.0008004976859927929
0.0009286449263676517
0.001057078993918232
0.001181620479421301
0.0012982142543117518
0.0014033404217859084
0.001494337109052233
0.001569578524304499
0.0016284926900222145
0.0016714417940595886
0.0016995131806353955
0.001714274885937065
0.00171754141923628
0.001711179286562756
0.001696965736182603
0.0016765012924180116
0.0016511690347261409
0.0016221304413380174
0.0015903474752202035
0.001556622794697407
0.0015216520513861743
0.001486085338690856
0.0014505969331893957
0.001415964378273607
0.0013831605758652004
0.001353459240173829
0.0013285661378907147
0.0013106322128281604
0.0013034568026341975
2.105325948459909e-06
7.136980232723955e-06
2.3145882166058525e-05
4.999698436730022e-05