# vtk DataFile Version 2.0
time_10.vtk
ASCII
DATASET UNSTRUCTURED_GRID
POINTS   4141  float 
0.00010001809570526281        8.055339308533199e-18         0.0                           
0.24999999999999947           9.505672650053156e-05         0.0                           
0.5000922357012375            4.387046404395811e-18         0.0                           
0.7500000000000002            8.581637009475072e-05         0.0                           
1.0000821860202254            -8.048952671850781e-18        0.0                           
1.25                          7.40232738690721e-05          0.0                           
1.5000694749562213            -5.737106483913291e-17        0.0                           
1.75                          5.9426091841326946e-05        0.0                           
2.0000539267193904            2.0946539677014967e-17        0.0                           
2.25                          4.2001744036183406e-05        0.0                           
2.500035593905769             -9.447401782093069e-17        0.0                           
2.75                          2.195740877305493e-05         0.0                           
3.00001477616775              -4.393063775549826e-17        0.0                           
3.25                          -3.228612849793776e-18        0.0                           
3.4999916262266515            9.561401089705526e-18         0.0                           
3.75                          -2.5317584499752e-05          0.0                           
3.9999660033829962            1.314798553463224e-16         0.0                           
4.25                          -5.180996591631507e-05        0.0                           
4.499939064447007             2.5389003890962095e-18        0.0                           
4.75                          -7.960127033202418e-05        0.0                           
4.999910863645472             -3.167571426070731e-17        0.0                           
5.25                          -0.00010861434491799259       0.0                           
5.499881434156348             -1.7502430840846585e-16       0.0                           
5.75                          -0.00013893437684518595       0.0                           
5.999850624840287             1.9424945086524877e-17        0.0                           
6.250000000000001             -0.0001708466803877995        0.0                           
6.499818085528696             -5.041656179438727e-16        0.0                           
6.75                          9.969823115028337e-05         0.0                           
7.000097327686727             6.913306115229285e-06         0.0                           
7.250007499054783             9.192578766648806e-05         0.0                           
7.500088853516919             8.764354937852397e-06         0.0                           
7.750009437558578             8.187977468809523e-05         0.0                           
8.000077951161343             1.0846526462573357e-05        0.0                           
8.250011574258359             6.916330525196294e-05         0.0                           
8.500064293780236             1.3055720362420103e-05        0.0                           
8.750013801409834             5.359915854271045e-05         0.0                           
9.000047780548003             1.5283723215829094e-05        0.0                           
9.250016013358277             3.523621987642924e-05         0.0                           
9.500028531766212             1.7433570935255203e-05        0.0                           
9.750018117974172             1.4321670424560977e-05        0.0                           
10.000006822737927            1.9423240038552034e-05        0.0                           
2.0151029290781247e-05        0.2999910073009618            0.0                           
0.2499827194834199            0.30002144984945706           0.0                           
0.5000220262218886            0.2999655546790058            0.0                           
0.7499567229693398            0.30002314660528456           0.0                           
1.000023692603597             0.29993860880685497           0.0                           
1.2499293395452713            0.30002476565181835           0.0                           
1.5000252981923392            0.2999103962051489            0.0                           
1.7499007235164936            0.3000263716205725            0.0                           
2.000026919662537             0.29988096132852854           0.0                           
2.249870858235935             0.30002805689410705           0.0                           
2.5000286534051392            0.29985015479915117           0.0                           
2.7498395257774373            0.30002991944283447           0.0                           
3.000030595143511             0.2998176249495904            0.0                           
3.249806312348787             0.3000320455335253            0.0                           
3.5000127027479557            0.30009637897122843           0.0                           
3.750093805474555             0.3000149795221734            0.0                           
4.000016217921321             0.3000879298758579            0.0                           
4.250084589994919             0.3000188649659872            0.0                           
4.500020259158927             0.3000770302721684            0.0                           
4.750072788366914             0.30002314915202416           0.0                           
5.000024628447423             0.30006334696917253           0.0                           
5.2500581427123               0.3000276148696462            0.0                           
5.500029106487834             0.3000467756530781            0.0                           
5.750040623672218             0.3000320512346674            0.0                           
6.00003349215197              0.3000274238455459            0.0                           
6.2500203944235775            0.3000362886759906            0.0                           
6.500037643264528             0.3000055049011749            0.0                           
6.749997686003265             0.3000403291660868            0.0                           
7.00004163079061              0.29998137068708974           0.0                           
7.249972892924309             0.30004404851103494           0.0                           
7.500045190533363             0.2999553844051365            0.0                           
7.7499463874749               0.3000473984082444            0.0                           
8.000048475487148             0.29992796071364286           0.0                           
8.249918543408107             0.3000506050238209            0.0                           
8.50005167059313              0.29989931348626503           0.0                           
8.749889498168166             0.3000538390582543            0.0                           
9.000054956907059             0.2998694400308795            0.0                           
9.249859178425352             0.30005729722872926           0.0                           
9.500058534059521             0.29983812364640916           0.0                           
9.749827296596749             0.3000611737665499            0.0                           
10.000062587951012            0.2998049426578732            0.0                           
9.71365639954072e-05          0.6000189993229198            0.0                           
0.2500206574122638            0.6000922401544844            0.0                           
0.5000894448628103            0.6000242855734792            0.0                           
0.7500262387859582            0.6000830563951329            0.0                           
1.0000794291852455            0.6000303708161995            0.0                           
1.2500325259040543            0.600071244864986             0.0                           
1.5000666710400152            0.600036951982739             0.0                           
1.7500391980410348            0.6000565404424381            0.0                           
2.000050984302395             0.6000436966093866            0.0                           
2.2500459272949294            0.6000389107702004            0.0                           
2.500032407693216             0.6000503047874527            0.0                           
2.7500524376365463            0.600018514049375             0.0                           
3.000011143973014             0.6000565786060884            0.0                           
3.250058589492707             0.5999956394716198            0.0                           
3.4999875442178467            0.60006246905473              0.0                           
3.7500643144736214            0.5999707299628637            0.0                           
3.9999620353195846            0.6000678151739148            0.0                           
4.250069490578461             0.5999441442647961            0.0                           
4.499934973789647             0.6000727422787718            0.0                           
4.75007433735775              0.5999162267759585            0.0                           
4.99990665950553              0.6000775161280836            0.0                           
5.250079121460008             0.5998871398840583            0.0                           
5.499877180054043             0.600082420767508             0.0                           
5.7500841377683285            0.5998568203030279            0.0                           
5.99984639596347              0.6000877624277986            0.0                           
6.250089690942202             0.5998249775610283            0.0                           
[...]
POINT_DATA  4141
SCALARS Con float 1
LOOKUP_TABLE default
0.0012989424265007006
0.0014227479536539367
0.0016689903330367405
0.001957920393315476
0.002285630771748837
0.0026532639711357975
0.0030617236818311464
0.0035112512661369553
0.004001364682324492
0.004530850068026282
0.005097782469602191
0.0056995717366763185
0.006333028505958312
0.006994441814132218
0.007679655289263014
0.008384118267005674
0.009102915027076679
0.009830701704977865
0.010563519314258526
0.011308195066008248
0.012147411627963269
0.012997388531914383
0.01377189807817694
0.014510476171615074
0.015254637695846925
0.016002235520467836
0.01675428544099648
0.0175124432456764
0.018279572402582385
0.019059502253989943
0.019856899611487577
0.020677151679900314
0.021526263853651716
0.022410761980733277
0.02333759449887635
0.024314031000257634
0.02534754817554829
0.026445579231522142
0.027613292924413873
0.028820739511680616
0.02951382538512926
0.0013251736478339228
0.0014521006510964352
0.0017035399832571814
0.0019980909154336548
0.0023318601176621784
0.0027058894858083406
0.003120980546111491
0.003577265984879411
0.004074153963740681
0.004610324681090336
0.005183757173309302
0.005791783361829398
0.0064311668315274245
0.007098204113910599
0.00778884935393397
0.008498885848783347
0.009224193326643893
0.009961704873399964
0.010710616588891822
0.011492114978876273
0.012288381301778535
0.013074452287761135
0.013843122454355351
0.014607334171824296
0.015361231117938237
0.01611388142237312
0.016868299027013416
0.017627680376364314
0.01839561389868535
0.019176370561915592
0.01997491426658433
0.020796860042444208
0.021648404270312425
0.022536242559812264
0.023467479318374725
0.024449529672619416
0.02549000594793739
0.026596468329126908
0.02777414459054405
0.02899348079227306
0.029694176549260196
0.0013128970896956625
0.0014396455128884913
0.0016914116094116397
0.0019869969045090536
0.00232243328862482
0.002698739765101698
0.0031166787072233857
0.003576338243177143
0.0040770798306344665
0.004617539982916152
0.005195664786406749
0.005808777067326593
0.006453678935203683
0.0071267975778825324
0.007824397347693425
0.008542904727280448
0.009279529157305597
0.01003292389499252
0.010806712796045463
0.01157880557619715
0.012322695830879
0.013071673315313798
0.01384806162145939
0.014620259569438122
0.015384412056621317
0.01614200537372365
0.016897740106505327
0.017655708867165346
0.018420223940633557
0.019196018594591982
0.01998838170011905
0.020803181645799557
0.02164683922670558
0.022526270585437488
0.023448812099518615
0.024422131674971495
0.02545411985320546
0.026552633021467355
0.027723205294856237
0.028936171831639126
0.029633174603433794
0.0012914290276074523
0.0014181785389168478
0.001670570751626446
0.001967837263857044
0.002306012203833679
0.0026860617305779775
0.003108681550680034
0.0035738815093857277
0.004080938474604354
0.004628403342398139
0.005214142290937776
0.005835412996019061
0.006488978856304568
0.007171266461346242
0.007878570207200234
0.00860730592012144
0.009354135417154224
0.010115952180542405
0.01088354567092477
0.011645770424285785
0.012401691706067563
0.013155870478338674
0.013914602257839272
0.01467951856711898
0.015441029625934641
0.016197311238266007
0.01695007675428123
0.01770289927375372
0.018460078140965806
0.019226543185033005
0.02000783046027396
0.020810076357612985
0.021639988929380138
0.02250479832676431
0.023412189528386324
0.02437021913265883
0.02538720725977567
0.026471473646363743
0.027629026160087906
0.028830892575053797
0.029522502539743957
0.00126109077022946
0.0013878392786679764
0.0016411697920652186
0.0019408583442562981
0.002282930063945524
0.0026682778821342677
0.003097498730188894
0.0035704862486872443
0.004086387681085037
0.00464361408820251
0.005239883526311451
0.005872296503501893
0.006537442425708828
0.007231530231148186
0.007950523130258761
0.008690201156642992
0.009446050641338289
0.010212136535200771
0.010981684152556882
0.011748966106703977
0.012511110356085816
0.013269825027788505
0.014027575592488474
0.014783949799261332
0.015537636621561587
0.016286537566708743
0.017031221743243345
0.017774215818087084
0.018519417693500833
0.019271683121744803
0.020036667383902727
0.02082073941066971
0.021630920566266885
0.022474823159650978
0.023360580510774772
0.024296763677927023
0.02529227221112199
0.026356069253274238
0.027494890595592045
0.0286809471350689
0.029365017554338284
0.0012216225973763434
0.0013484146614411384
0.0016030334881957861
0.001905928766830969
0.0022531042835454563
0.0026453518735860292
0.0030831360189592914
0.003566193783657848
0.004093494444378108
0.0046632499386697265
0.005272955223991043
0.005919455976917945
0.0065990383330676635
0.007307527883589794
0.008040368740424584
0.008792643056413262
0.009558922113210699
0.01033338352158435
0.011110239559903924
0.011884709620589134
0.012654095197882964
0.01341753699764905
0.014175116348462748
0.014926859507646857
0.015672103912208014
0.016410621006544432
0.017143083414689918
0.01787170340752901
0.018600075608998075
0.019332956811193486
0.020076081068027912
0.020836040022753567
0.021620194771599384
0.022436600225753892
0.023293929416232893
0.02420138933140803
0.025168614264008855
0.026205409428383123
0.02731951288280834
0.02848463143585968
0.029158541749490462
0.0011727810334359332
0.0012996793748727765
0.0015559839571126762
0.0018629230620350705
0.0022164632748158703
0.0026172659910625425
0.003065628798081003
0.0035610924347606065
0.004102401284228782
0.004687511544389114
0.005313626152128301
0.005977253408334187
0.006674283833139336
0.007400074395574795
0.008149526279678097
0.008917140986427822
0.009697129963457618
0.010483628121738404
0.01127113153038948
0.012055048280557283
0.012832062322368859
0.013600175740755538
0.014358331101936935
0.015105947459742919
0.015842824886366007
0.016569235199571028
0.017286363531807954
0.017996534580628464
0.01870333628285257
0.01941155323817506
0.020127058574312927
0.02085670845822597
0.021608252883642234
0.022390256808040923
0.023212024147545633
0.024083516947834453
0.025015255800129883
0.026018077260960375
0.027100930092439038
0.028239326426667676
0.02890014576408803
0.0011143763495249607
0.0012414602548327033
0.0014998861289540453
0.0018117537408072807
0.0021729707071074618
0.0025840372492787326
0.003045051202686735
0.0035553210033155967
0.004113324908818129
0.004716714765078121
0.005362344486994976
0.006046321610374021
0.006764079163751465
0.007510463681802756
0.008279836556923569
0.00906620336112364
0.009863392034683054
0.010665318782750668
0.011466326261518537
0.012261527186467553
0.013047050519849198
0.013820094524553355
0.014578822346395699
0.015322215369775096
0.01604998339383288
0.016762643157078688
0.017461652620939596
0.018149579359700636
0.018830181291283027
0.019508418438853425
0.0201904041216009
0.02088333536229728
0.021595420599996987
0.02233581065522391
0.023114531259570605
0.02394241214261317
0.02483099946592363
0.025792326967832655
0.02683675479807598
0.027941976429674997
0.028586388911226453
0.0010463426723207752
0.0011736952997475397
0.001434696121412778
0.001752405276382844
0.0021226448660892202
0.002545722816972679
0.0030215081655236994
0.0035490479221071884
0.004126521950969844
0.004751239645768248
0.005419660810629873
0.006127441736307313
0.006869507507038234
0.007640151302004407
0.008433164475210357
0.009242004150491414
0.010060009037387168
0.010880661908220794
0.011697879381185916
0.012506283808557344
0.013301404297244933
0.014079778952277093
0.014838968415719677
0.015577526396167652
0.016294989086177707
0.016991902368636402
0.017669895909259613
0.018331758788578935
0.018981496716286284
0.01962434704412131
0.02026675990545896
0.02091635679946011
0.021581880689150023
0.0222731448113592
0.02300098169856597
0.023777189420616622
0.02461446219481332
0.025526182390856585
0.02652432132410315
0.02758915544123332
0.02821339454606608
0.0009688195383383049
0.001096506247487643
0.00136051565661477
0.0016849695910686425
0.0020655745111253423
0.0025024163935221415
0.002995113071791313
0.003542431158019417
0.004142231644291651
0.004791455053941022
0.0054861317242489455
0.006221421470114682
0.006991687053465676
0.007790605181447236
0.00861131812735255
0.009446628331135139
0.010289233787386231
0.011131994221828277
0.011968205896813815
0.012791854948219895
0.013597820476286882
0.014382011786033317
0.015141444341999643
0.01587427635602737
0.016579830374953947
0.01725862072391026
0.017912387852005898
0.018544134722140445
0.019158151213477196
0.01976002076006612
0.02035660798347924
0.020956033952127414
0.021567645867493247
0.02220198686776992
0.022870767466629683
0.023586836210224376
0.024364137057813505
0.025217533189440686
0.02616079291776405
0.027177196730752234
0.02777698976910025
0.0008822480164529055
0.0010102820171855726
0.001277652139483733
0.0016096810442926893
0.0020019283643603163
0.0024542326531621726
0.0029659486702475384
0.0035355579447642993
0.004160597297257141
0.004837625159871566
0.005562215337355541
0.006328986159868852
0.0071316725172871085
0.007963245941042548
0.008816084758312666
0.0096821920631284
0.01055345348947999
0.011421919616958683
0.012280091643150961
0.013121186094039033
0.01393935777344418
0.014729869114089984
0.015489205928333156
0.016215148942527544
0.016906815565352937
0.017564683927441815
0.0181906074940731
0.018787821787395118
0.01936094341911053
0.019915960712476758
0.020460218260142035
0.021002399438673217
0.021552511778971887
0.022121878546306026
0.0227231373500453
0.02337024287764496
0.024078461124687506
0.024864238342636014
0.025743299850298385
0.026702360156302
0.02727288955158715
0.0007874797969190508
0.0009157716194119686
0.001186681674630214
0.001526947781758985
0.0019319545669414589
0.0024012759695764877
0.002934007694315997
0.003528361473508487
0.004181564704720344
0.004889796712619222
0.005648156422035627
0.006450673759810214
0.007290375619760403
0.00815941301953492
0.009049250464707006
0.009950912014614562
0.010855271509620781
0.011753368116567917
0.012636724100307263
0.013497641264485329
0.014329456273788923
0.015126742473121343
0.01588545455323075
0.016603020433318003
0.017278389462652057
0.017912048123393243
0.018506013363034996
0.019063811938574704
0.01959045247613623
0.020092395981729096
0.02057753031274072
0.021055154121250676
0.021535974619200787
0.022032121878309042
0.02255717950114879
0.02312622792189988
0.023755887134848438
0.024464246248773813
0.02526910758453818
0.026161046154779814
0.026696934793458443
0.0006858948558900428
0.0008141820810618949
0.0010885104450391282
0.0014373746874385078
0.0018559653953985778
0.002343588751407477
0.0028991086850925735
0.0035205101813378737
0.004204753071594269
0.004947661961476262
0.005743853681407106
0.006586720299600844
0.007468482931467495
0.008380325124755367
0.00931260631144982
0.010255146691209034
0.01119756632554429
0.012129654420904782
0.013041741150723802
0.013925044861285906
0.014771971851483148
0.01557635355840376
0.016333614669220838
0.017040874118868583
0.017696987288535557
0.01830254170535521
0.018859820212402338
0.019372745278051287
0.019846817286423908
0.020289057841148685
0.020707967742886677
0.021113507250713547
0.021517104246818984
0.021931693035030217
0.022371783186686957
0.02285355359400422
0.023394957552333125
0.024015730460379175
0.02473581616752877
0.02555005653203231
0.026045385989870804
0.0005795192456680632
0.0007072731625671179
0.000984427160898048
0.0013417716711430715
0.001774301892463344
0.0022810749175606534
0.0028607828746755955
0.0035112653002948415
0.004229293560639375
0.005010391422402836
0.005848702040336062
0.006736927475973518
0.007666362532070163
0.00862703494100311
0.009607952131326052
0.010597442237635734
0.011583565679787994
0.012554565249128487
0.013499318677067522
0.01440775872332261
0.015271231730451456
0.01608277482793708
0.016837302904169835
0.01753170698937567
0.018164874457103
0.01873764744418654
0.019252739132984528
0.019714628179475134
0.02012945041929471
0.020504904624859946
0.020850185988706724
0.021175957914875816
0.02149436915326198
0.021819119921299583
0.02216557666948818
0.02255093002695401
0.02299437912554984
0.02351723886520615
0.024141587596079078
0.02486690035238234
0.025315272809600317
0.00047112722858814614
0.0005974351580219433
0.0008761358626408362
0.0012411396937171825
0.0016872741610637022
0.002213396267546996
0.0028181305822860543
0.0034993047635446493
0.004253632761074303
0.0050764333222055
0.0059614069599268965
0.006900510821430306
0.007883962228893237
0.008900387727673867
0.009937117773267707
0.010980609678792535
0.012016965646450944
0.013032501194069887
0.014014314167795265
0.014950806575031566
0.015832119924010724
0.016650457911365348
0.017400285511613513
0.01807840821769247
0.018683947254331926
0.01921823504549523
0.01968465933439907
0.020088485192868103
0.020436681678084594
0.020737776172812413
0.02100175424941085
0.02124001829756326
0.021465413145965263
0.021692323223808454
0.02193684194218134
0.02221700909250537
0.022553099360791393
0.022967853682574667
0.023485396113363807
0.02411013890393864
0.024504793195693268
0.00036430382379154877
0.00048772884981519536
0.0007657544938224586
0.00113662846239378
0.001595077283906803
0.0021398455429785528
0.002769651176053853
0.003482515921068039
0.004275302770151729
0.005143281379618692
0.0060797734571056946
0.007075933838782563
0.00812070953824517
0.009201000993634318
0.010302026230255498
0.011407863727849816
0.012502126330937812
0.013568701980598856
0.014592489583976902
0.015560061929740658
0.016460200910483655
0.017284270321902204
0.018026414348140004
0.01868359116316504
0.01925546821728659
0.019744216649584857
0.02015424700632304
0.020491927607476566
0.020765322179026567
0.020983976383854304
0.021158775066976516
0.02130188471309624
0.021426789463471072
0.021548424617283974
0.021683408776943136
0.02185037474213189
0.022070389505003365
0.022367367971050673
0.022767292054071245
0.023279756220123963
0.02361375453539124
0.0002634275742939974
0.00038185679203512235
0.0006557650342453226
0.0010294635619313432
0.001497695403419157
0.002059210317453665
0.0027130555208417896
0.003457766109430453
0.004290667880058872
0.005207221280047149
0.006200480848243884
0.007260741404267294
0.008375431425941852
0.009529289916619783
0.010704830767983443
0.01188306103942298
0.013044384117442869
0.014169592444104928
0.015240843468862106
0.016242518779857683
0.017161888379908372
0.01798953432490613
0.01871952354976247
0.01934935177757374
0.0198797043986954
0.020314093675346062
0.020658435141022728
0.020920621550451914
0.021110142721771395
0.021237787731759328
0.021315453360394143
0.021356072459862877
0.021373667638861667
0.021383530764196468
0.021402527200745564
0.021449525243224438
0.021545960268669107
0.021716480325224056
0.02198869384945826
0.022377531772164967
0.02264400191303846
0.0001735415070078288
0.00028403093277050326
0.0005488930442952741
0.0009208781376033905
0.001394826005841585
0.001969632736304531
0.0026450742372866242
0.0034206738601316755
0.004294673474619787
0.0052630804740610646
0.006318865816070383
0.007451415012911885
0.008646320038826726
0.009885572105885029
0.01114816838715562
0.01241108760710874
0.013650532985210852
0.014843297615945964
0.015968089550222976
0.017006665587580506
0.017944660126914473
0.018772050129743503
0.01948325395606049
0.0200769113496159
0.02055542459593782
0.02092435613694863
0.021191776276514623
0.0213676419714598
0.021463268353764057
0.021490934066782943
0.02146364290449641
0.021395049787129996
0.021299549357285646
0.021192520414193915
0.021090718119664294
0.021012810393347413
0.020980057781859435
0.021017168697050344
0.021152664553731534
0.021407419299236424
0.021599947926885483
0.00010288388105261019
0.0001986833152497432
0.00044804778457498834
0.0008121052569110997
0.001285756422934477
0.0018684610131302582
0.0025613055559123208
0.0033654394369651776
0.004280656323300316
0.005304032402853301
0.00642875645669752
0.00764328797532334
0.00893098440905322
0.010270299570234278
0.01163558876000349
0.012998463605213709
0.014329544982461726
0.015600387965631634
0.01678532247437966
0.01786297418695053
0.018817298600998154
0.019638054087330322
0.020320735593550854
0.02086606516159183
0.021279180455679274
0.021568673438330088
0.021745618281449355
0.021822697241861196
0.021813498018068374
0.021732022283497205
0.021592418322453507
0.021408932385425777
0.021196063877135338
0.020968906055209156
0.020743656341485176
0.020538282171350477
0.0203733405769316
0.02027287169131519
0.02026521518236784
0.02037581858342475
0.02048832824088122
5.170011690119385e-05
0.00013040695626005726
0.0003562412649430216
0.0007041336846966157
0.0011693507617213665
0.0017524785945105615
0.002456567777866222
0.0032852529382819736
0.004240767027213618
0.005322032146044238
0.006522952862827685
0.007831127012767364
0.009227193464846725
0.010685001883241212
0.01217268913174625
0.013654598994634433
0.015093814757804594
0.016454942685707394
0.017706726584106314
0.018824117436262923
0.019789546604953395
0.02059332118403788
0.021233219350972856
0.02171348005734793
0.022043432882171254
0.02223601202523346
0.022306353623686544
0.022270615386233965
0.022145093986599352
0.02194566456284871
0.021687530309871764
0.0213852510402255
0.021053013475596166
0.02070511028020636
0.020356604294362715
0.02002416686585027
0.019727076561508666
0.019488403247119705
0.01933556620535453
0.019297646897887787
0.01932438157573969
0.0010748587226315433
0.0016560513227322391
0.003224153266035506
0.0066568124823815035
0.008071886681993852
0.011183530535212398
0.012807713364034473
0.015971663324238577
0.01742174389426364
0.019874967087755557
0.02083210461739531
0.021596268672912478
0.022169477539587368
0.022561365553779765
0.02278704597075859
0.022864976827115885
0.020860482936945784
0.02040209332750459
0.01871252827536145
0.018426882689648066
0.01819600509285475
2.429600020806809e-05
9.000550778045426e-05
0.00029143618888668007
0.0006207031298576293
0.0023701598572116365
0.004223483746154374
0.005369452934151362
0.009591573031738946
0.014419159416690874
0.018732239940361536
0.02281508960005382
0.022657330699749244
0.02241066994988844
0.022092560153047575
0.02171879236255029
0.021303676603387195
0.019941836590688152
0.019494501825051486
0.019077554195419844
0.018251239514813167
1.71258462366391e-05
6.724116374106037e-05
0.0002425298594139586
0.000549530602323786
0.0009850145736457429
0.0015523369756482892
0.0022593807218568114
0.003115797585008749
0.004129884598906369
0.005305457906661872
0.006638879489285942
0.00811662590058762
0.009713859394493356
0.011394448180262445
0.013112700800902386
0.014816751155758595
0.01645313736532609
0.017971792980635174
0.01933054748916644
0.02049836690739669
0.021456904596078134
0.022200339880886558
0.022733824229660124
0.02307104552752071
0.023231453573824154
0.023237601754586376
0.023112913325735653
0.022880025866353085
0.02255974173193933
0.022170528861028486
0.02172847553881772
0.02124759607426311
0.02074039872711117
0.02021865349384027
0.01969432825842076
0.019180687155544555
0.018693585419435655
0.018252945814805646
0.017884551246313087
0.017619996228951267
0.017513895755957947
2.0078758775701796e-05
5.493866504048575e-05
0.00020567923913224009
0.0004911908590032241
0.0009085174811139837
0.0014620873831344054
0.002162058519326969
0.003021011347265393
0.004050404298238089
0.005256875290560208
0.0066386351703164965
0.008182383776006306
0.009861357350117478
0.011635126953990332
0.013451562358217064
0.0152509451448591
0.01697166592457232
0.018556470285056945
0.01995803262379913
0.021142828928254438
0.022092768416422954
0.022804621429400526
0.02328773999334895
0.023560794672579658
0.023648249727011756
0.02357714091279418
0.02337450009780326
0.02306556103661127
0.02267272419782663
0.02221516745333032
0.021708955431951525
0.02116750724222973
0.02060231187678561
0.02002381911003408
0.019442470608286563
0.01886987708275838
0.018320133600814078
0.017811444742916342
0.01736731216708797
0.017023664664223365
0.016874493046780167
3.027027791617988e-05
4.967366512078327e-05
0.0001746925643119853
0.0004368056458940245
0.0008336547774691352
0.0013708626419761901
0.0020611235347257834
0.0029204017172164347
0.003963871858374577