# vtk DataFile Version 2.0
time_10.vtk
ASCII
DATASET UNSTRUCTURED_GRID
POINTS   4141  float 
5.3729637867234015e-05        1.5633528851073726e-18        0.0                           
0.24999999999999867           5.094564672622266e-05         0.0                           
0.5000493814716575            -4.309638138021787e-16        0.0                           
0.75                          4.585585034988789e-05         0.0                           
1.0000438768359843            2.0383724721167726e-17        0.0                           
1.25                          3.9453097162070276e-05        0.0                           
1.5000369996238656            -2.8977197565391384e-16       0.0                           
1.75                          3.159938622019434e-05         0.0                           
2.000028653277679             -2.3541873993061886e-16       0.0                           
2.25                          2.2282180679097258e-05        0.0                           
2.5000188670454064            -3.3162884028056536e-18       0.0                           
2.7500000000000036            1.1616460993395208e-05        0.0                           
3.000007807499478             -1.443707357044399e-17        0.0                           
3.25                          -8.726964991060811e-17        0.0                           
3.4999955591575165            -2.5113917386048295e-16       0.0                           
3.75                          -1.338790201244138e-05        0.0                           
3.999982042771814             3.419385245669046e-16         0.0                           
4.25                          -2.7310543739029036e-05       0.0                           
4.499967910722136             -8.732086069824872e-17        0.0                           
4.75                          -4.1836654076570755e-05       0.0                           
4.999953198107216             7.296226961483071e-16         0.0                           
5.25                          -5.691575253396998e-05        0.0                           
5.499937931481064             -4.5632527721573516e-17       0.0                           
5.75                          -7.258685505008184e-05        0.0                           
5.999922034793984             -1.865764840124671e-17        0.0                           
6.250000000000001             -8.900253462944357e-05        0.0                           
6.499905317837119             -1.8136260188850873e-15       0.0                           
6.75                          5.357036825784634e-05         0.0                           
7.000052233945162             3.8797797483004e-06           0.0                           
7.250004174060965             4.922764133314804e-05         0.0                           
7.500047535355989             4.814025348186047e-06         0.0                           
7.750005156248651             4.372509183326714e-05         0.0                           
8.000041592226145             5.875046646373586e-06         0.0                           
8.250006247219531             3.6845139033010464e-05        0.0                           
8.50003422526531              7.005831684362282e-06         0.0                           
8.750007387823068             2.849046258007273e-05         0.0                           
9.000025379122814             8.146613322687847e-06         0.0                           
9.250008519496372             1.8688226871586182e-05        0.0                           
9.500015120474096             9.243191093954604e-06         0.0                           
9.75000959046539              7.575688328616398e-06         0.0                           
10.000003602275669            1.0248211154032526e-05        0.0                           
1.0619155384060163e-05        0.299995236310786             0.0                           
0.24999086000724016           0.3000112710837298            0.0                           
0.5000115557825088            0.2999818170919759            0.0                           
0.7499771761019048            0.30001210563105046           0.0                           
1.0000123716609113            0.29996768248893463           0.0                           
1.2499628376689471            0.30001289093609645           0.0                           
1.5000131471926588            0.29995296427230783           0.0                           
1.7499479370887157            0.3000136620350315            0.0                           
2.000013924666058             0.29993769512059154           0.0                           
2.2499324733736135            0.3000144709755314            0.0                           
2.500014758941229             0.2999217999609322            0.0                           
2.7499163326606872            0.3000153748035083            0.0                           
3.0000157064782966            0.29990508799686066           0.0                           
3.2498992876980917            0.30001642544800444           0.0                           
3.5000071970706172            0.30005176206495676           0.0                           
3.750050323965309             0.3000083378790388            0.0                           
4.0000089630517754            0.30004707724914637           0.0                           
4.25004524795814              0.3000103067109233            0.0                           
4.500011017312826             0.30004113598754323           0.0                           
4.750038841206605             0.3000124943198335            0.0                           
5.0000132516583635            0.30003375565996593           0.0                           
5.2500309622783075            0.3000147815025516            0.0                           
5.500015545398846             0.3000248790407804            0.0                           
5.750021595166852             0.3000170514068367            0.0                           
6.000017786629863             0.30001456562256923           0.0                           
6.250010830160103             0.3000192086252376            0.0                           
6.500019894508814             0.30000293325567373           0.0                           
6.749998795208752             0.3000212514646836            0.0                           
7.000021905591915             0.2999901784174807            0.0                           
7.249985710483022             0.3000231079410025            0.0                           
7.500023670365901             0.29997650473960263           0.0                           
7.749971786116223             0.3000247491242065            0.0                           
8.000025271454879             0.2999621475382208            0.0                           
8.249957235044382             0.30002629785763224           0.0                           
8.500026809184567             0.2999472320437119            0.0                           
8.74994214064742              0.3000278481477217            0.0                           
9.000028384308353             0.299931764688091             0.0                           
9.24992647022907              0.3000295116805168            0.0                           
9.500030111390936             0.29991563244291003           0.0                           
9.749910070529742             0.3000314026503081            0.0                           
10.000032101164894            0.29989860489661013           0.0                           
5.22947141464823e-05          0.6000107656943368            0.0                           
0.25001159418132324           0.6000495462000243            0.0                           
0.5000479961453519            0.6000134219205212            0.0                           
0.7500144119829735            0.600044487768413             0.0                           
1.0000425108318791            0.6000165157987672            0.0                           
1.2500176165891672            0.6000380764478287            0.0                           
1.500035609838414             0.6000198818053719            0.0                           
1.7500210324974772            0.6000301670313817            0.0                           
2.000027191193188             0.6000233370487034            0.0                           
2.2500244787410537            0.6000207419396111            0.0                           
2.500017276439753             0.60002671470101              0.0                           
2.7500278009901282            0.6000098886774892            0.0                           
3.000005977750201             0.6000299022539196            0.0                           
3.2500309184582483            0.5999977675448323            0.0                           
3.4999934900597913            0.6000328685044741            0.0                           
3.750033788967381             0.599984625023485             0.0                           
3.999980051290667             0.600035519503534             0.0                           
4.250036340496587             0.5999706627558984            0.0                           
4.49996586269072              0.6000379213806748            0.0                           
4.750038691460159             0.5999560763177157            0.0                           
4.999951095643833             0.6000402184712246            0.0                           
5.250040987465661             0.5999409620578939            0.0                           
5.499935805577127             0.6000425685254548            0.0                           
5.750043393820979             0.599925292420267             0.0                           
5.999919922684658             0.6000451467007276            0.0                           
6.25004608675301              0.5999089129460493            0.0                           
[...]
POINT_DATA  4141
SCALARS Con float 1
LOOKUP_TABLE default
0.0004193163914594862
0.00045439334285714137
0.0005234564143553644
0.0006043176224948181
0.0006958643568495807
0.000798391463350071
0.0009121285862697256
0.00103712073921135
0.001173209639797442
0.0013200295848474375
0.001477011470901689
0.0016433939789393694
0.0018182405976750898
0.0020004601121206456
0.002188826633663684
0.0023819922527860064
0.0025784888737056567
0.0027767158446136576
0.002975340299023526
0.0031768360360364878
0.0034066755573377177
0.003637591567899864
0.0038430069739620078
0.004038444910803478
0.004234449325455018
0.0044303698929263145
0.004626417105888849
0.004823046461181214
0.0050210797014963995
0.005221634816675413
0.0054260891214276095
0.005636047785350381
0.0058533174327087606
0.0060798816784801086
0.006317877018385082
0.006569567725332604
0.006837316031053275
0.007123507066780413
0.007429880382570751
0.00774829001181703
0.007931820033216843
0.00042591121336119444
0.00046181635291365553
0.0005322819822717118
0.0006146647333750572
0.0007078547307705199
0.0008121183041690761
0.0009276561831782141
0.001054482658441023
0.0011924084464667388
0.0013410380207639079
0.0014997754320254478
0.0016678379554107663
0.0018442770111979155
0.0020280058774564567
0.0022178346774547595
0.0024125192327822914
0.0026108418758225864
0.002811875507906712
0.0030154816373174336
0.003227199739541747
0.0034422871235445206
0.0036543022026629484
0.0038603298452414892
0.0040628899150510055
0.0042615577206686316
0.004458761818423013
0.004655338757697072
0.00485217710915796
0.005050302287969914
0.005250954550734916
0.005455592753735657
0.005665884040139118
0.005883686640388254
0.006111029818864754
0.006350091932407284
0.006603176283038155
0.006872681488787238
0.007161027102417674
0.007469973080999663
0.007791502884866254
0.007977046369169613
0.00042209488303281606
0.00045796957040243705
0.0005285589777126737
0.0006112689479986067
0.0007049655725675059
0.0008099065390045697
0.0009262798859078265
0.001054086088337034
0.0011931218260571124
0.0013429787830594286
0.0015030517014305508
0.001672555828360608
0.0018505547226492485
0.0020360008468645685
0.0022277956520225244
0.002424883260396427
0.0026264271350449025
0.0028320238572619567
0.0030425848982265817
0.0032522702161356582
0.0034522032047202373
0.003652221335970361
0.003860021620996348
0.0040655654306427985
0.004267330445144645
0.004466033471705742
0.004663037907896787
0.004859524748534965
0.005056735754992576
0.0052560457116982325
0.005459004830560629
0.0056673488143102095
0.005882994317413662
0.006108026294298314
0.006344680574310004
0.006595322633746998
0.00686241989159946
0.007148467455129836
0.007455315017424201
0.00777497237688887
0.007959486329390923
0.0004154719617780895
0.0004513765961825275
0.0005222002391832223
0.0006054494969159257
0.0006999861108961716
0.0008060494504647102
0.0009238060575970119
0.0010532322191380088
0.001194099164384831
0.0013459733319034846
0.001508226313530802
0.0016800548649684795
0.0018605120174204125
0.0020485509341950712
0.0022430828666103074
0.002443049550903385
0.002647463496626639
0.002855391154788897
0.003064247624574603
0.0032705128001825037
0.0034739933375406637
0.003675983890962376
0.0038782425338101762
0.004081431405849239
0.00428255282561551
0.004480972563780463
0.004677227736188896
0.004872357939940679
0.005067610934862159
0.005264420601076007
0.005464406393484233
0.005669375719783068
0.005881319580066368
0.006102402508954882
0.00633494791648364
0.006581419265040253
0.006844394137065768
0.007126491450617634
0.007429697018172639
0.007746237964464617
0.007929231026978666
0.00040611358344898183
0.00044206211550899414
0.0005132329111747412
0.0005972577506108855
0.0006929889041776539
0.0008006403975864506
0.0009203471146163522
0.0010520494871045858
0.001195479736485646
0.0013501629690008488
0.0015154275966316713
0.0016904250662466472
0.0018741586906523035
0.0020655198276774926
0.002263325827810489
0.0024663387554912652
0.0026732333337596845
0.0028822867837094398
0.0030914682662274524
0.0032991027007366817
0.0035042701818378324
0.0037074730687001022
0.003909468344173661
0.004110076593523416
0.004308897323831646
0.004505263473080916
0.004699313168776676
0.0048917828632655145
0.005083805202078318
0.005276792960364565
0.005472396341926265
0.005672482183303073
0.005879120457924209
0.0060945712535748495
0.006321270141417306
0.0065618105130846385
0.006818919164159659
0.007095385079650988
0.007393392727886417
0.0077054817562172894
0.007886291020137225
0.0003939417556568319
0.00042996137533456223
0.0005016048249020976
0.0005866554450644485
0.0006839506096759511
0.0007936698795742233
0.0009159058835360828
0.0010505508244333145
0.0011972833753082115
0.0013555697413238704
0.0015246731961111632
0.0017036715505737259
0.0018914812243637173
0.0020868844620819758
0.0022885516066474256
0.002495046741969011
0.002704786295596997
0.0029160601509461794
0.0031271681324659055
0.003336677562362855
0.003543789917537648
0.003748252589187784
0.0039500901679918295
0.004149307597260579
0.004345676595021364
0.004539106303522139
0.004729774131138889
0.004918315521147053
0.005105774118794691
0.005293531685006915
0.005483255630865833
0.005676867139395504
0.005876519744303454
0.0060845825924698
0.0063036248797120106
0.006536399026265504
0.006785818057515768
0.007054887309104099
0.007346048870990612
0.007652247518410806
0.0078301480938081
0.000378881835492623
0.0004150062593509902
0.00048726302950497565
0.0005736062189925918
0.000672851644893611
0.0007851348138531841
0.0009104952823732902
0.001048764827217183
0.001199554438420926
0.0013622546231662573
0.0015360433315489135
0.0017199008254041507
0.0019126301271931996
0.0021128801253739358
0.0023191673650063945
0.002529891989106188
0.0027433668807689948
0.0029578793135581617
0.0031718127674032265
0.003383819745601812
0.0035929291948443923
0.0037985676621028297
0.004000439076493185
0.004198375694884632
0.004392313053556362
0.004582317117799518
0.00476872432956927
0.0049522062603671434
0.005133802922864403
0.005314900696525337
0.00549719981556703
0.00568268551722191
0.0058736058215824866
0.006072454015912205
0.006281953555960359
0.006505043011246897
0.0067448563055037955
0.007004658668078596
0.007287203976639237
0.007585937419572286
0.007760128017626151
0.0003608734886293487
0.0003971426706366096
0.00047016658315557114
0.0005580846935625302
0.0006596829842676864
0.0007750429276895486
0.0009041406472570782
0.0010467363715410977
0.0012023608841723872
0.0013703144629637566
0.0015496729093363128
0.0017393004088686482
0.0019378686108206913
0.002143880841474251
0.0023557005884541557
0.002571587942147673
0.0027897503915830808
0.0030084185574941885
0.0032259470143569642
0.0034409169416427217
0.003652214092692167
0.0038590435531286093
0.004060894653242441
0.004257491581943103
0.0044487626298065405
0.004634865614341785
0.004816228701499025
0.0049936007241662686
0.005168072426978293
0.005341077343105962
0.005514376374369996
0.0056900384203154054
0.005870422560027464
0.006058163354769136
0.006256158634404424
0.006467558075521917
0.00669574795946608
0.006944292972853853
0.007216310593902902
0.007505848897611525
0.007675436499453339
0.000339890656870815
0.00037634744602462166
0.0004503002534505768
0.000540086193304002
0.0006444517747128174
0.0007634144249068847
0.0008968775903744533
0.0010445207759337786
0.0012057845501885006
0.0013798673312564638
0.0015657291916538814
0.0017621031574238122
0.001967514462165832
0.002180308052691943
0.002398685364536272
0.0026207522781769746
0.002844581287639224
0.003068288382492866
0.003290118909772831
0.0035085300418071963
0.003722251312958957
0.00393031421050474
0.004132052118818769
0.004327086226454988
0.004515318346903496
0.004696936611919107
0.004872436617893797
0.005042642129290098
0.0052087196465656176
0.00537218020979792
0.00553487235254158
0.005698970449211903
0.005866962989656549
0.006041642998082923
0.006226100991121444
0.006423719349178275
0.006638163766346742
0.006873333445801266
0.007132758191564655
0.007411195386970694
0.007575180180070305
0.00031596487597644016
0.00035264910980440685
0.00042769012091516616
0.0005196369327073388
0.000627185952501931
0.0007502810733693048
0.0008887457689572756
0.001042172531849776
0.001209904981622518
0.001391031215709947
0.0015843845211765278
0.0017885528532096708
0.002001898514730955
0.0022225891966752708
0.0024486413191481
0.0026779763426887956
0.002908489610969943
0.003138128914377786
0.003364976494241652
0.0035873248775564414
0.0038037371862950195
0.00401308586780432
0.004214571117473828
0.004407726243665542
0.004592418580714405
0.004768853109112251
0.004937578844235047
0.0050994961595435175
0.005255860525034597
0.005408281425208286
0.005558716843694223
0.005709466121870936
0.005863163693011772
0.0060227756348107415
0.006191599547795182
0.0063732669107383795
0.00657174378458865
0.006791292571371433
0.007035898582792475
0.007301137451319355
0.0074584006550044634
0.0002892129086221932
0.00032615187950129964
0.0004024209240305813
0.0004968041872332664
0.0006079371244210893
0.0007356819542549568
0.000879777971393542
0.0010397284257670518
0.0012147774648379093
0.0014038979406268055
0.001605787331287233
0.0018188742664846486
0.002041337986768287
0.002271142367923118
0.0025060851810482497
0.002743861987415847
0.0029821423421131617
0.0032186538346702645
0.0034512673415879117
0.0036780757883086235
0.0038974592798333573
0.004108132449452988
0.004309173798144474
0.004500040392581054
0.004680573165736653
0.004850997158503281
0.005011919594940359
0.005164326228686388
0.005309576158810086
0.005449395176893244
0.005585868916115612
0.0057214375704866816
0.00585889412569522
0.0060013874116746175
0.006152430327196473
0.00631591239620191
0.006496112532516216
0.006697676064228511
0.006925078668234912
0.007174823354623897
0.007324119090262615
0.0002598683125004818
0.0002970626328332911
0.0003746544490204129
0.00047170558458312366
0.0005867807121444672
0.0007196548357836629
0.0008699835232425912
0.0010371842408739942
0.0012204047086105025
0.0014185019306139086
0.0016300306099076938
0.0018532447167834345
0.002086115548205212
0.0023263683870450164
0.002571538158406503
0.002819042495584908
0.0030662684256790728
0.0033106668393489353
0.0035498474087619684
0.0037816662630542077
0.004004299763867064
0.004216300173240419
0.004416632049419099
0.0046046911878508
0.0047803096161409524
0.0049437508667024435
0.00509569919359807
0.005237245668021517
0.005369873463529762
0.005495444386484882
0.0056161886457734315
0.005734699935569031
0.005853937409445312
0.005977235637260819
0.006108322646855706
0.006251345008373129
0.006410895823943709
0.006592011157591905
0.0067996803341285736
0.007031439980952897
0.007171392977526271
0.00022831600347655926
0.0002657197196475193
0.0003446477747854545
0.00044451621370810053
0.0005638120234555454
0.000702221808672655
0.0008593246921282944
0.0010344637391318135
0.0012267008292796637
0.0014347822341341677
0.0016571155135162218
0.0018917631840506737
0.0021364578387030146
0.0023886414934058517
0.0026455294107041085
0.0029041958139634397
0.003161676134346345
0.003415078173344939
0.0036616932431064162
0.003899098364136474
0.004125241975274504
0.004338508230672804
0.0045377580099249986
0.004722347866163514
0.004892130336594023
0.005047440365509859
0.005189072951192781
0.005318256782587345
0.00543662821494003
0.00554620913047176
0.0056493918299453634
0.005748933320842254
0.005847960797097715
0.005949989211612546
0.006058950878704387
0.006179235819264051
0.00631573859555609
0.006473878728333144
0.006659167381263081
0.006870274214420076
0.006999385297700404
0.00019512753169060145
0.00023262147039051153
0.00031276934110620357
0.00041547175847520294
0.0005391366643991632
0.0006833678156839203
0.0008476847673930926
0.0010313785109575852
0.0012334460590993498
0.0014525359649915073
0.0016869079464269558
0.0019344144764213325
0.002192511002877898
0.0024582985671193235
0.0027285989799187157
0.003000058762223295
0.0032692743473547014
0.003532928213995634
0.0037879242116891964
0.00403151059983048
0.004261381370359119
0.004475749622528049
0.004673390708098289
0.004853656563607555
0.00501646568881382
0.005162275083026311
0.005292041269446642
0.005407177399891148
0.005509512613279048
0.005601258923383558
0.005684989544588058
0.005763631717854481
0.005840475801103305
0.005919201575858477
0.006003921608147634
0.006099240237119123
0.006210323461067606
0.006342948831379932
0.006503138890773027
0.006690784383445696
0.006807446084693606
0.00016109291736200843
0.00019845065256978898
0.0002795098936761101
0.00038486545265251326
0.0005128539754322223
0.0006630112408558244
0.0008348271409738807
0.001027577901191071
0.0012402311641365852
0.0014713620483632235
0.0017190870863059687
0.0019810278988590265
0.0022543139423391585
0.002535629580838008
0.0028213056269090673
0.0031074498353074113
0.0033901057408415717
0.0036654252655916684
0.0039298387919574716
0.004180207104834747
0.004413942613899933
0.004629091985334808
0.004824377764138636
0.004999201666572908
0.005153616255446972
0.005288274263691855
0.005404365606280568
0.005503551911929329
0.005587906892909166
0.005659869308873202
0.00572221333498823
0.005778039543168173
0.00583078829922986
0.005884276341474796
0.0059427564221258755
0.006010998815575346
0.006094390236329645
0.0061990189972124885
0.006331387972198987
0.006492680462004226
0.006595204856846394
0.00012724248206288008
0.00016408909187649016
0.00024548405527924594
0.0003530370111075821
0.0004850332383773311
0.000640967360320539
0.0008203462078433313
0.001022489346646883
0.0012463917015091
0.0014905954188595349
0.0017530863597192941
0.002031231771515168
0.0023217720348896183
0.0026208740249949814
0.0029242463772684644
0.003227308875165759
0.0035254005013611875
0.0038140050396888933
0.004088970705696397
0.00434670167088352
0.004584304261547605
0.0047996779097945535
0.004991549034545308
0.005159453327399714
0.005303677453034768
0.005425174027825659
0.005525464499413824
0.005606543174407275
0.005670793288085582
0.005720923149052649
0.005759927626288879
0.0057910778735257035
0.005817940607572306
0.005844427073677643
0.005874871473634917
0.005914138528184041
0.005967757645130067
0.006042057060428786
0.006143963827939637
0.006276010320442612
0.006362672999939766
9.484724605947722e-05
0.000130613602804611
0.00021141846460741832
0.00032035257864224175
0.00045568595037574354
0.0006169081977714543
0.0008036120377977856
0.0010152511683098034
0.001250934450648734
0.0015092341678458723
0.0017880295904648316
0.002084407228516894
0.002394636195574957
0.00271423009278771
0.0030380966102081302
0.0033607639362649576
0.0036766611988844023
0.003980421452479322
0.00426717214481508
0.004532780794691461
0.00477403181107123
0.004988722276316445
0.005175677018507484
0.005334694042993735
0.005466438637099923
0.005572307536831258
0.005654284047508814
0.005714802014475277
0.005756631952185028
0.005782798327329785
0.005796532673449901
0.005801264404665316
0.005800649089383273
0.005798633104633264
0.0057995536127389054
0.0058082735816165935
0.005830353963187512
0.0058722475612840025
0.005941241493245429
0.006041246662394985
0.00611034200031594
6.538965558546671e-05
9.92633232547867e-05
0.0001781192685630787
0.00028718595014678083
0.00042474270678046297
0.0005903193811844496
0.0007837120904633606
0.0010046437423362911
0.0012524627658729098
0.001525866082840385
0.0018226682628798795
0.002139647322306735
0.002472494379819489
0.002815885868746211
0.003163682348364517
0.0035092388320439464
0.0038457927304352446
0.004166881003040103
0.004466732912415424
0.004740589822606426
0.004984918099300675
0.005197500978917584
0.005377415158715645
0.0055249137781127455
0.00564124653416407
0.005728449937185297
0.005789137427595616
0.005826312520058308
0.0058432204550779646
0.005843246731154389
0.005829865310100535
0.005806635633388257
0.005777245604804672
0.00574559728492907
0.005715932489662643
0.005692997281755135
0.005682245094969146
0.005690084352218028
0.005723981826411753
0.005789377729976314
0.005839312957490883
4.045311561123673e-05
7.13604470655151e-05
0.0001464596843748384
0.00025391578446945544
0.00039201319977388334
0.0005604522627377887
0.0007594016665303498
0.0009890349255885836
0.0012491165735200797
0.0015386078447188708
0.001855330568741798
0.0021957307664476405
0.002554785417476847
0.0029260846273034963
0.003302099924317143
0.0036746189673232386
0.004035295142783606
0.004376235904721098
0.004690545095870724
0.004972744405826423
0.005219025644953797
0.005427319435679302
0.005597198631208206
0.005729657509992676
0.00582681863816943
0.0058916177993417595
0.005927508352092358
0.005938213525624125
0.005927542294157809
0.0058992740294666205
0.0058571099969493045
0.005804685862356991
0.00574563848038583
0.0056837204746272045
0.005622958403863276
0.005567851334634719
0.005523610469069644
0.005496418553265846
0.005493654332337803
0.0055219422541935926
0.005551205081741575
2.1803225466708947e-05
4.830891466512173e-05
0.00011735772574052778
0.00022084596233706524
0.0003571725962285166
0.0005263744889524129
0.0007291832068263994
0.0009664668373625588
0.0012386534581685874
0.0015451790605589067
0.0018839974406356756
0.002251217060979203
0.0026409330837258676
0.0030453128166807856
0.0034549604029074786
0.0038595373986692466
0.004248559650375324
0.004612247529163775
0.0049422906567166
0.005232408807981403
0.005478639522827019
0.0056793439129635605
0.005834975347823732
0.005947688685177661
0.0060208761729723375
0.006058706385812789
0.006065720907950953
0.006046520416510038
0.006005551252321024
0.005946989456681115
0.005874711169374316
0.005792335648953965
0.005703328220320172
0.005611153521854092
0.0055194736155006465
0.005432389582979174
0.0053547253050894635
0.005292361366379723
0.005252406515773062
0.005242461412058862
0.005249589253761542
0.00032858792777263967
0.0004978218980818661
0.0009492196170615891
0.0019236991332344606
0.0023213779073646716
0.0031874708473202565
0.0036343266057770386
0.004491650575169957
0.004877112388022803
0.005513658366503478
0.00575420248274354
0.0059410195725902015
0.006075992486288382
0.006162928043620532
0.00620687304036928
0.006213485813396633
0.005648298731583856
0.005528613871572404
0.005090603244662665
0.005016567953115274
0.004957077434072849
1.0916205246931862e-05
3.346659276917955e-05
9.612879709267606e-05
0.00019485825170124306
0.0007040993856457278
0.0012344857278039315
0.0015599447590977005
0.002745877784488201
0.004073413366293346
0.005220064286377396
0.006188527753013513
0.00613750136436683
0.006065433496377027
0.005976785619058498
0.005875466790693464
0.005764925113745836
0.005409024730812325
0.0052930966219200135
0.005185141539996383
0.004971106279665575
7.153129335477654e-06
2.517201659764884e-05
8.07042863364447e-05
0.00017339628213910101
0.00030214458404797455
0.00046782114993012674
0.0006725486013495908
0.0009188871672864267
0.0012089301235773372
0.001543399912607145
0.0019207926094199053
0.002336688933419527
0.002783375391185392
0.003249915681346621
0.0037227531670455515
0.004186815013237499
0.004626956245185304
0.005029476330830208
0.0053834113767773145
0.005681366700097004
0.005919784838705826
0.006098685931927357
0.006221023867881236
0.006291845134119574
0.006317425273458059
0.006304509796638144
0.006259729557889738
0.006189210158305069
0.006098361147580051
0.005991813298193318
0.005873467708135857
0.005746624957527987
0.005614170204912657
0.005478800084829094
0.005343286237314533
0.005210777468871172
0.005085153016595772
0.004971427138303853
0.0048762476302614
0.004807934945394083
0.004780783139657997
6.244390733136971e-06
2.00161503329528e-05
6.879608334965445e-05
0.00015561130169136414
0.000279467497211236
0.00044157048034360226
0.0006447029662802267
0.0008922561645691441
0.0011872021384069188
0.0015310232386215189
0.001922671380191181
0.0023576898803578453
0.002827687883997004
0.0033203622599544402
0.0038201938451950016
0.0043097991163043884
0.004771732840115274
0.005190384650974044
0.0055535680666129695
0.005853491287193097
0.006086985882455067
0.006255068519125358
0.0063620481189421
0.0064144353185290135
0.006419877885136428
0.00638627080145824
0.006321109359201246
0.006231090452965101