# vtk DataFile Version 2.0
time_10.vtk
ASCII
DATASET UNSTRUCTURED_GRID
POINTS   4141  float 
4.567917597261939e-05         -8.608129700701466e-16        0.0                           
0.25                          4.3253532583351776e-05        0.0                           
0.5000418992037253            3.178311143684141e-18         0.0                           
0.75                          3.886290326586115e-05         0.0                           
1.000037166105191             -1.8982135373210957e-17       0.0                           
1.25                          3.33870882468281e-05          0.0                           
1.5000312974709273            -4.933224510784806e-16        0.0                           
1.75                          2.670944663119405e-05         0.0                           
2.000024211550575             4.810275328376269e-17         0.0                           
2.25                          1.8818845322265784e-05        0.0                           
2.500015932193205             -1.2270162541116292e-17       0.0                           
2.7499999999999996            9.81013281638379e-06          0.0                           
3.000006595986618             -2.3701908310038805e-16       0.0                           
3.2500000000000004            1.8221095977034304e-18        0.0                           
3.499996282451564             -2.3720532870775065e-16       0.0                           
3.75                          -1.1219888110406428e-05       0.0                           
3.999984948357835             -9.630953368542138e-17        0.0                           
4.25                          -2.289124041792462e-05        0.0                           
4.499973105803389             -1.5975920930589298e-16       0.0                           
4.75                          -3.5053948071139476e-05       0.0                           
4.999960792228032             -8.113036160401925e-17        0.0                           
5.25                          -4.766334118415423e-05        0.0                           
5.499948031507825             -1.2674436036338335e-16       0.0                           
5.75                          -6.0751083886422685e-05       0.0                           
5.9999347608173785            -8.391985503740351e-18        0.0                           
6.25                          -7.444429492525976e-05        0.0                           
6.499920821416458             -4.838885150312128e-16        0.0                           
6.75                          4.5548988051704105e-05        0.0                           
7.000044381798864             3.3808939937775e-06           0.0                           
7.250003622177498             4.1773600862737435e-05        0.0                           
7.500040313698455             4.148099894813124e-06         0.0                           
7.750004429830222             3.704227102989276e-05         0.0                           
8.000035218178166             5.0222985236885234e-06        0.0                           
8.250005329326179             3.117136079442431e-05         0.0                           
8.50002894384989              5.9554558446023144e-06        0.0                           
8.750006270808575             2.407853505800136e-05         0.0                           
9.000021443713862             6.897199127357782e-06         0.0                           
9.250007204952375             1.578612954684807e-05         0.0                           
9.500012773191322             7.80204786624642e-06          0.0                           
9.750008088495537             6.4085470321858755e-06        0.0                           
10.000003060797793            8.630968211888016e-06         0.0                           
8.932970276844633e-06         0.2999960246303177            0.0                           
0.24999234988909408           0.30000946591098              0.0                           
0.5000096997865731            0.2999847635355175            0.0                           
0.7499808725571794            0.3000101505220885            0.0                           
1.0000103682125152            0.2999729182670858            0.0                           
1.2499688616352582            0.30001079258961055           0.0                           
1.5000110018281545            0.29996059993197627           0.0                           
1.7499563961033207            0.3000114220585885            0.0                           
2.0000116364483107            0.29994783709578143           0.0                           
2.2499434761407207            0.3000120827013609            0.0                           
2.5000123181673635            0.29993456766925364           0.0                           
2.7499300070980315            0.30001282245345234           0.0                           
3.000013094458249             0.2999206324156689            0.0                           
3.249915799103744             0.3000136850306048            0.0                           
3.500006301205487             0.30004399623181577           0.0                           
3.750042745758235             0.3000072357130201            0.0                           
4.000007749149295             0.30003993975018267           0.0                           
4.250038366775759             0.3000088547573723            0.0                           
4.5000094402921915            0.30003484584538104           0.0                           
4.750032887674035             0.3000106584985479            0.0                           
5.000011283522859             0.3000285603872051            0.0                           
5.250026189059634             0.3000125464320136            0.0                           
5.500013177058315             0.30002103502410876           0.0                           
5.750018257361224             0.3000144200368               0.0                           
6.000015026594668             0.300012319991623             0.0                           
6.250009169076869             0.3000161989238399            0.0                           
6.500016763683118             0.30000251748273454           0.0                           
6.749999035927279             0.3000178768471101            0.0                           
7.000018412293753             0.2999917938593517            0.0                           
7.249988042896235             0.3000193976347873            0.0                           
7.500019858526338             0.2999803215616044            0.0                           
7.749976366834852             0.30002074139195467           0.0                           
8.000021168332227             0.299968294306227             0.0                           
8.24996418276373              0.300022006517804             0.0                           
8.50002242385401              0.2999558162381059            0.0                           
8.749951560550473             0.3000232718427713            0.0                           
9.000023709647332             0.2999428932323974            0.0                           
9.2499384733584               0.30002463108977556           0.0                           
9.500025121872188             0.29992943121160714           0.0                           
9.749924793409399             0.3000261802235305            0.0                           
10.000026753665992            0.29991523771381867           0.0                           
4.4506236839126094e-05        0.6000094266109876            0.0                           
0.2500101046183362            0.6000421104909271            0.0                           
0.5000407680722041            0.6000116046092245            0.0                           
0.750012418878328             0.6000377463454148            0.0                           
1.0000360513326845            0.6000141518185392            0.0                           
1.2500150595641688            0.6000322634689998            0.0                           
1.5000301628945296            0.6000169288129505            0.0                           
1.7500178787239955            0.6000255394250077            0.0                           
2.0000230168592767            0.6000197812628213            0.0                           
2.250020723620542             0.6000175597065499            0.0                           
2.5000146318832446            0.6000225683172715            0.0                           
2.7500234638524073            0.6000083992585133            0.0                           
3.0000051042834914            0.6000251938672311            0.0                           
3.250026028920953             0.59999819512736              0.0                           
3.4999945989077976            0.6000276284664722            0.0                           
3.7500283828165593            0.5999871530036214            0.0                           
3.9999833151309683            0.6000298003255338            0.0                           
4.250030472205949             0.5999754438654423            0.0                           
4.499971422624249             0.6000317645160206            0.0                           
4.750032393405947             0.5999632299397901            0.0                           
4.999959063187828             0.6000336397079825            0.0                           
5.250034267221708             0.5999505911621567            0.0                           
5.499946282920152             0.6000355578677363            0.0                           
5.7500362320952725            0.5999375046221185            0.0                           
5.999933023668492             0.6000376658644712            0.0                           
6.250038435892227             0.5999238414444583            0.0                           
[...]
POINT_DATA  4141
SCALARS Con float 1
LOOKUP_TABLE default
0.0003200552663305757
0.000344973551191085
0.00039420347704851964
0.00045173102351272565
0.0005167253467356938
0.000589372813833621
0.0006698163478175542
0.0007580699919440881
0.0008540059355783684
0.0009573518863346229
0.0010676942115002564
0.0011844861878874571
0.0013070604783743975
0.0014346442550263832
0.0015663743766401142
0.0017013080091348976
0.0018384267112154357
0.0019766279715878673
0.0021149975337318213
0.0022549650626640934
0.0024128202882518256
0.002571247171529455
0.0027133145113959955
0.0028484714784258445
0.0029837476104190496
0.0031187253613074424
0.0032535795461365747
0.00338865202757791
0.0035245342396445626
0.0036620207348992974
0.003802084686733609
0.003945856780061274
0.004094607386019841
0.004249730000159381
0.004412724896768827
0.004585182080509942
0.004768760878804034
0.004965137661517237
0.005175539361676122
0.005394339687880652
0.005520359317377734
0.0003250375315270259
0.00035053924782492044
0.0004007659166190575
0.0004593698794374808
0.0005255224562795621
0.0005993896589318272
0.0006810939532363614
0.0007706277145035861
0.0008678412988547231
0.0009724413979358454
0.0010839953824759664
0.0012019411741134229
0.0013256022463876448
0.0014542073766801993
0.0015869153276481256
0.0017228485874656498
0.001861146906025028
0.0020011412682326727
0.0021426537522592224
0.002289309805146709
0.0024378840077388325
0.0025841242035277677
0.0027262018885049664
0.0028659443618671704
0.0030028883206091265
0.003138649365219611
0.0032738013683302875
0.0034089687758311346
0.003544876281762885
0.0036823992168751587
0.0038225651332656303
0.003966546373520096
0.004115648192490892
0.004271295033154594
0.004435015594351318
0.004608426393097726
0.004793211475326308
0.00499107062047706
0.005203244783562345
0.005424198573432272
0.005551605890650902
0.00032222593984864936
0.00034771257792833206
0.0003980383757951022
0.00045688781697771134
0.0005234135989880071
0.0005977747930562152
0.0006800840310328094
0.0007703230273574365
0.0008683312432402772
0.0009738052116333428
0.0010863043441429999
0.0012052632671723097
0.0013300112723328686
0.0014598003655176715
0.0015938461508714786
0.001731390420824389
0.0018718180499331986
0.0020147944147902125
0.0021608690884296817
0.002306114901949465
0.002444929027072704
0.002583604120424313
0.0027269063073281676
0.0028684447090476374
0.0030073192462836784
0.0031439759763807374
0.0032793290972571634
0.0034141879990371438
0.003549416222369213
0.003685975839612412
0.0038249537993125
0.003967567453210338
0.004115160776394505
0.004269195425034893
0.004431238732716919
0.004602949217476518
0.004786057614775627
0.004982315298812341
0.005193025541831437
0.005412674700766894
0.005539369472502578
0.00031734949146648933
0.00034286752427811854
0.00039337996511001064
0.0004526351646439684
0.00051978102514951
0.0005949622263220871
0.0006782748195394436
0.000769681999069864
0.0008690037398443615
0.0009759171092098151
0.0010899633292147575
0.0012105618053180633
0.0013370317440559803
0.0014686223626006092
0.0016045524571800009
0.0017440596334314829
0.0018864284325419893
0.0020309866834250074
0.0021759816225595083
0.002319127018903966
0.002460247211451163
0.0026001327093600327
0.0027398850875019485
0.0028799015266293628
0.003018281311604465
0.0031546581218172515
0.003289411958928292
0.0034232638483362708
0.0035570821294065758
0.00369186813580345
0.0038287548050281576
0.00396900733683168
0.004114019563198859
0.00426530673834939
0.004424495408165506
0.004593310596030611
0.004773558148922474
0.004967074437599032
0.005175257066815495
0.005392744737339845
0.005518385755465626
0.00031045663425210106
0.000336020707824767
0.0003868090683891702
0.0004466481524473392
0.0005146765873714032
0.0005910191937882923
0.0006757477480329944
0.0007687982032846309
0.0008699610485548973
0.0009788822103322804
0.0010950704786932867
0.0012179114140288844
0.0013466875722119261
0.0014806038530312596
0.0016188143441315842
0.0017604369441084622
0.0019045361266685048
0.0020499223747546666
0.0021952255465046647
0.00233930672918664
0.002481532429856176
0.0026221876387974084
0.0027617280110929805
0.002900028986580095
0.003036842445907457
0.0031717703456301625
0.0033049470926436583
0.0034369018861220434
0.0035684321504954324
0.0037005281847276427
0.0038343452244734306
0.003971189351027935
0.004112508150353714
0.00425988172704713
0.004415012775763404
0.004579714706436193
0.004755895235761857
0.004945507371843414
0.005150085779500056
0.0053644846889689774
0.005488608613299672
0.0003014872816585889
0.00032712176202035506
0.0003782853568568682
0.0004388974544172578
0.0005080828247861245
0.0005859394368245774
0.0006725068071275815
0.0007676844470941608
0.0008712227087823017
0.0009827237288883251
0.0011016483558697317
0.0012273286857394014
0.0013589853257532354
0.0014957471147208532
0.0016366680117001202
0.0017807336495900001
0.0019268372440357233
0.00207379799314864
0.0022204488614542177
0.0023658080163369726
0.002509311599973083
0.0026507599749980293
0.0027901451611201107
0.0029274612978121423
0.0030625715723973253
0.0031954458852933815
0.0033262433898957975
0.0034554323388275594
0.0035837563938634315
0.0037121894150709493
0.003841901142283633
0.003974236158245254
0.004110699608029202
0.004252946033156133
0.004402769057190166
0.004562090328930928
0.004732944554583487
0.0049174326857481885
0.005117265939553454
0.00532757844888442
0.005449683318470783
0.00029038204105319453
0.0003161166083774637
0.00036776685358598553
0.0004293543872872752
0.0004999845871704715
0.0005797212406630803
0.000668563441506371
0.0007663651587714701
0.0008728262048856665
0.0009874927554768761
0.001109763318880173
0.0012388996997299824
0.0013740420646992143
0.001514226181462246
0.001658400208242888
0.0018054379317854845
0.0019541608914827925
0.002103380660545004
0.0022519805352693816
0.0023990280718024556
0.002543846662622244
0.00268602969732601
0.0028253643406351034
0.0029617367917677806
0.0030951169664248145
0.0032255766043699317
0.003353378511858655
0.0034790166093444145
0.0036032359134392715
0.0037270172040414023
0.0038515554323094044
0.0039782406233833095
0.004108643215152104
0.004244502594200086
0.004387717356395927
0.004540335699128312
0.004704542657576715
0.0048826164137254335
0.005076481668299525
0.005281618749963757
0.0054011500048966625
0.00027708999209025186
0.00030295963208054074
0.00035521903096967766
0.00041799736759712914
0.0004903738995571666
0.0005723705963266144
0.0006639382454951926
0.0007648768642843402
0.000874826355493392
0.0009932662005377685
0.0011195202807138319
0.0012527666607638679
0.001392051925792191
0.001536309328248481
0.0016843800805701682
0.0018350400618776536
0.0019870357346791763
0.0021391361194091456
0.002290200363098341
0.002439246407810689
0.002585502925093403
0.0027284202971816105
0.002867648823936752
0.0030030074766385336
0.003134464454823119
0.003262153423481933
0.003386399167284976
0.003507748737057185
0.003626983748321786
0.003745119711696925
0.0038633951921141292
0.00398325877819943
0.004106357349875807
0.0042345266393086535
0.0043697836493503655
0.004514319764073493
0.0046704913346824264
0.00484078033566982
0.005027360079377175
0.005226127465542573
0.005342467919275598
0.00026158282336486127
0.00028762570563997236
0.00034062457031535916
0.0004048188970815542
0.00047925406600586763
0.0005639025406800612
0.00065865964940208
0.0007632643248856131
0.0008772888234418215
0.0010001370432670515
0.0011310479683782966
0.0012691045563204186
0.0014132483624769393
0.0015623000310690045
0.0017149862001488564
0.0018699738569222402
0.00202591392660606
0.0021814941486446855
0.0023354974831246516
0.0024868578017761293
0.002634700955351991
0.002778365182257189
0.0029174018288047367
0.0030515664836055266
0.003180814157723023
0.003305302386005689
0.003425403911681885
0.0035417187295800154
0.0036550820908656085
0.0037665643799246976
0.003877465601707544
0.0039893073086527606
0.0041038249026980386
0.004222961725608293
0.004348865152586698
0.0044838838839693475
0.004630563393660156
0.0047916127073342795
0.00496948640951452
0.005160570736799556
0.005273030549132364
0.00024387148565425213
0.00027012504181438173
0.0003239945874495518
0.00038983296589012
0.00046664315315543575
0.0005543407612729719
0.0006527598179052753
0.0007615729688714106
0.0008802792362833141
0.001008200071616359
0.0011444808209242507
0.0012880985430091373
0.0014378771085064592
0.001592510264091039
0.0017505931270353277
0.0019106623473555415
0.002071244410311494
0.0022309100483101276
0.0023883304750744556
0.0025423290899451363
0.0026919224469904796
0.0028363465319788577
0.0029750691643980233
0.003107793305637237
0.0032344569659133386
0.0033552344391411374
0.003470539060527128
0.0035810263381091676
0.0036875948336227283
0.0037913840975488267
0.0038937701136578986
0.003996360190957181
0.0041009889397243884
0.004209716601198528
0.004324830005714711
0.004448845543715409
0.004584511231211518
0.0047347817930495925
0.004902421658481662
0.005084380564032011
0.005192189292971159
0.00022402610257198633
0.0002505205296484078
0.0003053812366156673
0.0003730825564645667
0.0004525763230534539
0.0005437148934233586
0.0006462672825614549
0.000759837398612194
0.0008838482440894581
0.001017534236685414
0.0011599395354606017
0.0013099240479007626
0.0014661786352604816
0.0016272504994847968
0.0017915790155959691
0.0019575413813373945
0.0021235062912661933
0.0022878924448734464
0.002449227333282812
0.0026062010946364196
0.0027577106648353695
0.0029028914635529602
0.003041136511645522
0.0031721052694559768
0.0032957257736332076
0.003412193067372714
0.0035219660269186085
0.003625762984167131
0.0037245565600078517
0.003819567857047118
0.003912261033452673
0.0040043394766679855
0.004097744909495011
0.004194660261379905
0.004297516501383088
0.0044090028049462255
0.004532077164158364
0.00466995229889689
0.004825725100445231
0.004996982801297914
0.005099284259309956
0.00020219895379759188
0.00022894742733443633
0.0002848912393588403
0.0003546466424869345
0.0004371062871913997
0.0005320547357726351
0.0006391955333372365
0.0007580653100909948
0.0008880120120092317
0.0010281812417896287
0.0011775095985104617
0.0013347275623127922
0.0014983741181667928
0.0016668243991721499
0.0018383303898439761
0.0020110733507472402
0.0021832251274330554
0.002353014167719279
0.002518791127316424
0.0026790888014794774
0.002832671872907225
0.002978573712424019
0.0031161195332624885
0.0032449372808308883
0.003364958774576412
0.0034764141260939406
0.0035798221131329968
0.003675978612181258
0.0037659448848345644
0.0038510371722809277
0.003932819055299609
0.004013098017022038
0.0040939272505442
0.0041776134279546285
0.004266730448599016
0.004364138416839149
0.004473004944451115
0.004596804724130164
0.004738981595963343
0.004897832026156699
0.004993683168145801
0.00017865000322378474
0.00020563470954126694
0.0002626995490854161
0.0003346457641099248
0.00042030089991274916
0.0005193803419771954
0.0006315265380741714
0.000756215797244966
0.0008927270953866721
0.0010401191802246507
0.0011972161910203188
0.0013626054972576567
0.001534650856774514
0.0017115225793580889
0.001891244574757589
0.002071756170041377
0.002250984694290214
0.002426923343963815
0.0025977080359079873
0.0027616870881792674
0.002917478623280346
0.003064012483718081
0.0032005555864341373
0.003326721818711325
0.0034424690604636203
0.0035480868227380272
0.0036441782173854925
0.003731639616823882
0.0038116411623688503
0.003885610528198559
0.003955222140689924
0.00402239343227861
0.00408928929987807
0.004158335333155501
0.004232239716843414
0.004314022892329533
0.0044070520204298885
0.004515057308124328
0.004641833578014852
0.004786453359537903
0.004874828469802856
0.00015377347481155247
0.000180926653338108
0.0002390617405767154
0.0003132448867984016
0.00040223669292929537
0.0005056869203786831
0.0006231881272865687
0.0007541709113235241
0.0008978584684395656
0.0010532298494216022
0.0012189939249159045
0.0013935794422714322
0.00157514561312759
0.001761615526376786
0.0019507320791651286
0.002140133339782264
0.00232744171386708
0.0025103594233879876
0.0026867620049488773
0.002854781869977009
0.0030128755951127923
0.003159870924200495
0.003294992308821953
0.0034178663652819517
0.0035285107141032235
0.003627310848924273
0.00371499017928906
0.0037925781631934054
0.003861380821872481
0.003922957225009665
0.003979104547020759
0.0040318536948920165
0.004083476609093969
0.004136505800444043
0.004193765946844715
0.004258416549807362
0.004334002390010113
0.004424490307768707
0.004534017331869574
0.0046624909474663615
0.004742292687309875
0.00012812271281309492
0.00015530211202289393
0.00021432306366474534
0.00029065192330785894
0.00038298730948154185
0.0004909237839755367
0.0006140245731116605
0.0007516997166198996
0.000903139814492129
0.0010672588373439491
0.0012426506506161654
0.0014275674638356878
0.0016199264323882067
0.0018173476055793657
0.0020172227126268203
0.0022168102647178263
0.002413348979611465
0.00260417891364058
0.0027868587495015478
0.0029592684700643647
0.003119689005009236
0.0032668539252361703
0.00339997215348746
0.00351872418055906
0.0036232369747516333
0.003714044400808871
0.003792040285096383
0.0038584309862380165
0.003914693123153216
0.00396254096775439
0.004003906594512626
0.0040409348159902774
0.0040759939420085085
0.004111702767245777
0.004150973623095106
0.004197070646768122
0.0042536802384598
0.004324972141937929
0.004415402815438746
0.00452576216454541
0.004595840822868322
0.00010242880871431707
0.00012938745346998282
0.0001889210992002901
0.00026711050934257184
0.00036260647880589377
0.00047496769618025713
0.0006037606808180315
0.0007484148023506201
0.0009081259199646465
0.0010817682953102909
0.0012678255826395742
0.001464352375049331
0.0016689749143867095
0.0018789355526130317
0.0020911802429371554
0.002302482600876677
0.0025095928020326067
0.002709395906678101
0.0028990629321040766
0.0030761794457572398
0.003238840313602369
0.003385704623007379
0.0035160105463396913
0.003629554907335808
0.0037266458557015567
0.00380803869751702
0.0038748651973250655
0.003928565418168338
0.003970829367619265
0.004003553652043813
0.004028816414308333
0.004048872202212191
0.004066167437316648
0.004083376384599407
0.004103457390144862
0.004129729132315004
0.0041659652001046895
0.004216488667322892
0.004286035643517285
0.004376315736377442
0.004435499312491402
7.760491724456333e-05
0.00010395683768296992
0.0001633790633975497
0.0002428861486007087
0.00034110765362615006
0.000457592818248971
0.0005919603839822706
0.0007437223238935154
0.000912138499243206
0.0010960839214990811
0.0012939435357470273
0.001503549378079449
0.0017221724562889436
0.0019465763454568957
0.002173131906448058
0.0023979839134546767
0.0026172521497218443
0.002827243940731829
0.003024653265203069
0.003206724393586845
0.003371364387505725
0.0035171975739803764
0.003643563868106001
0.003750470081120942
0.0038385079407047286
0.0039087541298442035
0.003962666824174985
0.004001990784437054
0.0040286796080277265
0.004044840779523982
0.004052706128200899
0.004054628543209552
0.004053104430752452
0.0040508209908700545
0.00405072749997379
0.004056130425995243
0.004070813896142913
0.00409917481628273
0.004146184213425003
0.00421449011456518
0.004261621708713149
5.473074199308702e-05
7.991284529002918e-05
0.00013828417374429065
0.00021825296130521858
0.0003184461436133856
0.0004384371738067092
0.0005779816818848786
0.0007367693048595895
0.0009142098245364196
0.0011092404061709108
0.0013201693012157606
0.0015445773264895636
0.0017792956167424232
0.0020204712133427764
0.0022637212131462288
0.002504362245712927
0.0027376891886118186
0.00295926748608114
0.003165201241024835
0.003352344022124317
0.0035184308685815347
0.0036621242863867525
0.0037829809568369504
0.0038813563202380113
0.003958269636777424
0.004015252768411585
0.004054202904545183
0.0040772544037011695
0.004086679429402278
0.004084822154592526
0.004074067631070635
0.004056844126592773
0.004035656604395238
0.0040131489372632135
0.003992192919753018
0.003976003468844813
0.003968279962856056
0.003973377858934998
0.003996379698003358
0.00404097416798941
0.0040749759802162985
3.4978603472100324e-05
5.8232868767318584e-05
0.00011428107442737759
0.0001934916145200632
0.00029448749213727105
0.0004169637480828978
0.000560935764081108
0.0007263990643890559
0.0009130349007026096
0.0011199344002372064
0.0013453695191627598
0.0015866402357518385
0.0018400278109692567
0.0021008746881477822
0.0023637950772896262
0.00262299814948665
0.0028726835662350133
0.0031074532465674935
0.0033226795155386446
0.0035147792804989557
0.0036813643711958756
0.0038212627308593537
0.003934427489910396
0.004021765495154279
0.004084922659269569
0.004126060990996083
0.0041476546745398205
0.004152323277932632
0.00414271110427479
0.004121414796209365
0.0040909567428241
0.004053799614887808
0.004012397083250359
0.003969276168868395
0.0039271484971869575
0.003889048451809356
0.0038584989739697084
0.0038396904523801795
0.0038376357016554744
0.0038568286972774208
0.003876677531945918
1.9687055898347064e-05
3.998054316951191e-05
9.205900623242955e-05
0.00016883031891206757
0.00026899298075922006
0.0003924905605901152
0.0005397359548082949
0.0007112043302618428
0.0009070201539943031
0.0011265687735743143
0.0013681599235512208
0.001628790202726897
0.0019040519704293993
0.002188226773993565
0.0024745759580930508
0.0027558048103513127
0.0030246371579315456
0.0032744094205828874
0.003499586262162067
0.0036961191366611905
0.0038616065356938544
0.003995258267253147
0.004097701752493251
0.004170688403145248
0.0042167608145644055
0.00423893230513902
0.0042404138468339694
0.004224407158146323
0.004193968829775904
0.004151941373133249
0.004100942271533807
0.004043400990122314
0.003981635116323609
0.003917959173328971
0.003854822753774956
0.0037949773568285968
0.003741671441559285
0.003698879546640825
0.0036714191286945923
0.0036644533693378626
0.0036691677688370297
0.0002481544230265435
0.0003721419956510766
0.0007000459383749248
0.0013992507345039723
0.001681867672482479
0.0022922976067008692
0.002604480198786636
0.0031976438167972856
0.003461486086104588
0.003892041672290042
0.004052341827683225
0.004175266742876675
0.004262501363490125
0.0043169748106698415
0.004342378962036007
0.004342739478612581
0.003942108527830131
0.0038597954209163886
0.0035596907906561
0.0035089666328833747
0.0034679565544676956
1.0261611882640376e-05
2.7907722508095272e-05
7.57375507134585e-05
0.00014944738204331997
0.0005223984409675361
0.0009057972941162815
0.001139417963488443
0.001981926793092184
0.0029092811115895394
0.003694391558524793
0.004322078544941381
0.004284182646190784
0.004232470574066015
0.00416994672383721
0.004099221816019462
0.0040225841217340205
0.003777736432919651
0.003698308598959822
0.0036244036475966282
0.003477708909164148
6.406376509401025e-06
2.090175329557476e-05
6.379772139485904e-05
0.0001333803110337283
0.00022875209096298767
0.0003504767913549594
0.0004999647403490111
0.0006788768013696288
0.0008884704852431478
0.0011289572099038127
0.0013989079883929413
0.001694795408205853
0.00201077417759748
0.002338794495776686
0.0026690938252170887
0.0029910296520964793
0.0032941224174400673
0.0035691099312116516
0.0038088056671647945
0.0040086083029180755
0.00416660834417048
0.004283336241097023
0.004361264719955346
0.0044041998036654425
0.004416679523274563
0.004403461595583415
0.004369140907111401
0.004317903732623188
0.004253404279969397
0.0041787392518324515
0.004096494561402696
0.0040088426512139355
0.003917674486385776
0.0038247574721516514
0.0037319165474271315
0.003641240495416599
0.003555322558609894
0.0034775357602978363
0.0034123741208539372
0.003365482893352962
0.0033467524204907613
4.833990700087244e-06
1.6345989044686933e-05
5.452506112354253e-05
0.00012005250083516676
0.00021211969199818305
0.0003315439202319769
0.00048021569084175976
0.0006603859860476524
0.0008739209844931651
0.0011215366012894393
0.0014020713331600822
0.0017118974134587926
0.0020446072621729382
0.0023911081875399795
0.0027402003081165626
0.0030796016446359422
0.0033972523226427557
0.003682631548483089
0.0039278068687946975
0.004128016310374367
0.004281724093762172