# vtk DataFile Version 2.0
time_10.vtk
ASCII
DATASET UNSTRUCTURED_GRID
POINTS   4141  float 
8.286651239692726e-05         2.1063507299370104e-17        0.0                           
0.2500000000000001            7.885377718399041e-05         0.0                           
0.5000765581439325            -9.469976915911628e-18        0.0                           
0.7500000000000002            7.130612956109899e-05         0.0                           
1.000068322493142             2.646931114181172e-18         0.0                           
1.25                          6.15883899105438e-05          0.0                           
1.5000578244161076            2.3297532914279985e-17        0.0                           
1.7499999999999996            4.948721419552787e-05         0.0                           
2.0000449151386053            8.243747197449432e-17         0.0                           
2.25                          3.498493065491463e-05         0.0                           
2.50002964251966              1.6411777243018063e-17        0.0                           
2.75                          1.826602772795149e-05         0.0                           
3.0000122761381323            6.907737332626049e-18         0.0                           
3.25                          1.840703174123916e-17         0.0                           
3.499992921355767             9.313112582046668e-17         0.0                           
3.75                          -2.1329500870695842e-05       0.0                           
3.9999713832796604            -1.5771076371554814e-16       0.0                           
4.25                          -4.3564185204130865e-05       0.0                           
4.499948782018078             6.154305900890901e-17         0.0                           
4.75                          -6.686596596349709e-05        0.0                           
4.999925144403717             1.4816762966610656e-17        0.0                           
5.25                          -9.116826301370877e-05        0.0                           
5.499900501602893             -3.969249655950046e-17        0.0                           
5.749999999999999             -0.00011654064736664706       0.0                           
5.9998747268382315            -6.567546080152899e-18        0.0                           
6.25                          -0.00014322761453352384       0.0                           
6.4998475181459865            -1.2067889402786654e-16       0.0                           
6.75                          8.259476661612597e-05         0.0                           
7.000080681999583             5.5900824190174725e-06        0.0                           
7.2500060878487975            7.629486506313167e-05         0.0                           
7.500073785667795             7.16323700346435e-06          0.0                           
7.750007735434952             6.806238436111437e-05         0.0                           
8.000064825223069             8.933022528257802e-06         0.0                           
8.250009551562945             5.755981679738009e-05         0.0                           
8.500053522870658             1.0810626872731218e-05        0.0                           
8.750011444257362             4.463700695158823e-05         0.0                           
9.000039793792151             1.2703343015398607e-05        0.0                           
9.250013322710403             2.933784539422723e-05         0.0                           
9.500023743772111             1.4526883899818196e-05        0.0                           
9.7500151060178               1.1878805459908512e-05        0.0                           
10.000005610786683            1.6206497089366208e-05        0.0                           
1.6836125195577978e-05        0.29999236335556273           0.0                           
0.24998540892075347           0.3000179433679128            0.0                           
0.5000184267355369            0.2999710015335155            0.0                           
0.7499635909031356            0.30001936585004246           0.0                           
1.0000198228476376            0.2999483972417176            0.0                           
1.2499406256595063            0.3000207192239109            0.0                           
1.500021163247744             0.2999247504669545            0.0                           
1.7499166483949171            0.300022057051231             0.0                           
2.000022513082114             0.2999001034156077            0.0                           
2.2498916490656353            0.30002345971915              0.0                           
2.50002395684811              0.29987433109580447           0.0                           
2.7498654427153513            0.30002501423008              0.0                           
3.0000255800949542            0.2998471304828893            0.0                           
3.2498376709370644            0.3000267984074524            0.0                           
3.5000102251827063            0.3000798760029479            0.0                           
3.7500777907775404            0.3000121598228284            0.0                           
4.000013212296166             0.30007300104415696           0.0                           
4.250070264411824             0.3000154620800408            0.0                           
4.500016647067654             0.3000640431786843            0.0                           
4.750060539820829             0.30001910337905374           0.0                           
5.000020360626432             0.3000527191491434            0.0                           
5.250048397800932             0.3000228984430357            0.0                           
5.500024165693939             0.30003894047739915           0.0                           
5.750033813772511             0.30002666637914505           0.0                           
6.000027889184599             0.300022799168569             0.0                           
6.250016926499594             0.30003026026200286           0.0                           
6.50003140820553              0.30000446919212015           0.0                           
6.749997922221661             0.30003369435808525           0.0                           
7.0000348025479395            0.29998425152514946           0.0                           
7.249977142833686             0.3000368452252446            0.0                           
7.500037804854847             0.2999624575851641            0.0                           
7.749954912094361             0.30003965538010297           0.0                           
8.00004055600425              0.2999394626061257            0.0                           
8.249931569919127             0.300042332904672             0.0                           
8.50004322050666              0.2999154606038584            0.0                           
8.749907242061274             0.3000450251623013            0.0                           
9.000045955368302             0.2998904549730086            0.0                           
9.249881870462703             0.30004790471961074           0.0                           
9.500048936727826             0.2998642623637744            0.0                           
9.749855209452727             0.3000511449966027            0.0                           
10.000052331564138            0.2998365184665792            0.0                           
8.041841523735703e-05         0.6000152911328713            0.0                           
0.2500166999765946            0.600076460943607             0.0                           
0.5000741872330793            0.6000197832807249            0.0                           
0.7500214432939173            0.6000689617301651            0.0                           
1.0000659810217336            0.6000249551416081            0.0                           
1.250026786775941             0.6000592293222975            0.0                           
1.5000554440958782            0.6000305484611241            0.0                           
1.75003245724176              0.6000470380958928            0.0                           
2.000042417796963             0.6000362796868747            0.0                           
2.2500381746012477            0.6000323597337395            0.0                           
2.500026933954513             0.6000418915920673            0.0                           
2.750043701717361             0.6000153261857962            0.0                           
3.0000091609196122            0.600047215764852             0.0                           
3.250048923232228             0.5999961796788544            0.0                           
3.4999893986760564            0.6000522163346043            0.0                           
3.7500537780515786            0.5999753077622896            0.0                           
3.999968018515829             0.6000567278679673            0.0                           
4.250058134535667             0.5999530176935994            0.0                           
4.499945329549074             0.6000608570073778            0.0                           
4.7500621891496815            0.5999296174831993            0.0                           
4.999921602144985             0.6000648387308959            0.0                           
5.250066175021345             0.599905256228328             0.0                           
5.499896919624867             0.6000689203905539            0.0                           
5.750070349828484             0.5998798853895092            0.0                           
5.999871166884644             0.6000733721214044            0.0                           
6.250074983751219             0.5998532574543987            0.0                           
[...]
POINT_DATA  4141
SCALARS Con float 1
LOOKUP_TABLE default
0.0008405070779137635
0.0009264345429237874
0.0010965363011106815
0.0012967808291578413
0.001524656487504782
0.001781071741412272
0.002066753410709839
0.002381952600890389
0.0027263978838494404
0.0030992849424167357
0.0034992867038788327
0.003924581185270231
0.004372893298617659
0.00484154410618877
0.005327497005049114
0.005827381867008562
0.006337493702312641
0.006853740804778088
0.007372942723940378
0.007902085939712894
0.008512536998244741
0.009129699350343187
0.00967946004881812
0.010201652029395172
0.010728151050919694
0.011257023167793275
0.011788756587799085
0.012324383727334055
0.012865886418273347
0.013416001190635476
0.013978118526859876
0.014556195139494906
0.01515467989480422
0.015778444449155025
0.016432714519815147
0.017122998586902572
0.017855006061022985
0.018634458229529742
0.019465416151675772
0.020326254575541942
0.020821479176574644
0.0008570703081315165
0.0009451697074341199
0.0011188691816610456
0.001323029605494803
0.0015551473942153737
0.0018160609744308854
0.002106425321847132
0.0024264148138196336
0.0027756803730518316
0.0031533429049195667
0.003558008182311933
0.003987801282959196
0.00444041904991548
0.004913199423253397
0.005403209371077587
0.005907371366632132
0.006422677147040995
0.006946947298739954
0.007480084328027028
0.008038953798197926
0.008609874014936854
0.009173528673810577
0.009722663831066302
0.010265904991390325
0.010800528904428619
0.011333585006602006
0.011867292463958165
0.012403931890126377
0.012946066947825203
0.013496781179546056
0.014059693784869978
0.01463893362356271
0.015239091846660764
0.015865165415917568
0.016522494558972974
0.017216694279162465
0.017953573099071484
0.01873894536741822
0.019576921297925917
0.020446185506691573
0.020946839497085246
0.0008486336932343149
0.0009365922404772763
0.001110490883846635
0.0013153399857015191
0.001548587780034638
0.0018110588366803241
0.0021033836608736122
0.0024257091171914305
0.0027776580997677415
0.0031583270273903975
0.0035663069490469803
0.003999728721080498
0.004456335074398759
0.0049335868195773715
0.005428822988785139
0.005939515493128662
0.006463764252050128
0.007000869803164573
0.007553983979409804
0.008106101427979878
0.008633385382650202
0.009164010511367152
0.009718798949862714
0.010270029007061166
0.010813691509478609
0.011351349699831283
0.011886677715622351
0.012422753586234257
0.012962750994516197
0.013510134781658856
0.014068784173899262
0.014643023665176384
0.015237611591172961
0.01585770453921295
0.016508807437817363
0.017196712832498358
0.017927424011925368
0.018706964547158037
0.019539673459834664
0.020404221265909468
0.02090219844909203
0.0008339111533227964
0.0009218474620732625
0.0010961348126075237
0.0013021045153465917
0.0015372104846751642
0.0018022442991263393
0.002097794488309804
0.0024239587733621186
0.0027803076233806085
0.0031658857339488537
0.003579238357032766
0.004018463634201524
0.004481294000828545
0.004965211656300314
0.005467602326951477
0.005985948929587763
0.006517926358220158
0.007061346503034354
0.007609117275680377
0.008151812702261224
0.00868903791224785
0.00922476433074706
0.009764279480302108
0.010309296062755347
0.010851399161649384
0.01138871460080723
0.011922482366404908
0.012455349463905476
0.01299048427865297
0.013531508347859865
0.01408249138206861
0.014647958238396987
0.015232876757558042
0.01584262861568006
0.016482966167661
0.017159956951975405
0.017879909209917628
0.018649180037777508
0.019472459113478027
0.02032894642877977
0.02082299580783051
0.0008131240364882563
0.0009010265014217924
0.0010758975348500728
0.00128347792888805
0.0015212219951450871
0.0017898755295212274
0.002089964175012528
0.0024215114904899203
0.002784005278997598
0.003176401188436312
0.0035971501338615324
0.00404424951301312
0.004515317682900763
0.005007686799842279
0.005518498172723859
0.006044739046494622
0.006583132474725008
0.007129213210637769
0.007677653274061261
0.008224021338331045
0.008766070950108732
0.009305442850713594
0.009844393029065784
0.01038253171225208
0.010918671687320535
0.011450799160056733
0.01197907687568197
0.01250526518135061
0.013032183672560581
0.013563376321587474
0.014102988600634489
0.014655707074833749
0.015226719823001113
0.01582167737629333
0.016446647702822517
0.017108061548303043
0.017812638772061126
0.01856719729595515
0.019376952924874367
0.020221943912590107
0.02071043755388016
0.0007861162634433021
0.0008740035902927268
0.001049675096255828
0.001259381549635961
0.0015005710206896334
0.0017739256309942004
0.0020798860896663694
0.002418374910549124
0.002788764346414593
0.003189879582182856
0.00362002323956278
0.004077019597862773
0.0045582746827279655
0.005060842337214807
0.005581473056028404
0.006116612642788919
0.006662263541224432
0.007214041859443697
0.00776754067152923
0.008319084592316547
0.008866702157905092
0.009409888506223372
0.009948841879772167
0.010483617473110201
0.011013543374380885
0.011538219309561512
0.012057904366759659
0.01257406592534663
0.01308925029215758
0.01360689423431659
0.014131177147754932
0.014666930019007913
0.015219572439735303
0.015795061357905205
0.016399841266357434
0.01704078912787841
0.017725142970464444
0.018460316685662448
0.019252232985508502
0.020082002747428024
0.020563049303369822
0.0007527528586624259
0.0008406535439613713
0.001017368954184392
0.0012297459087496783
0.0014752172180536084
0.0017543823647970917
0.0020675746631841057
0.002414589321532347
0.0027946514239947954
0.0032064166239989707
0.0036479905445546737
0.004116964857925336
0.0046104660185337645
0.005125208318910809
0.005657540311264261
0.006203472563538681
0.006758745532918037
0.007318989418644793
0.007880063654460883
0.008438522069310778
0.008991906335810805
0.009538787329052563
0.010078430006248043
0.010610381494481796
0.011134391651649526
0.011650487372267503
0.01215936068801786
0.012662562588545588
0.013162610036240325
0.01366293300861383
0.014167787817796462
0.014682176149494281
0.015211779772796629
0.015762905731803403
0.016342435705536857
0.016957773221865702
0.01761677735710244
0.018327586960003736
0.01909698099447898
0.019907379975786947
0.020378875950301623
0.0007129463861852623
0.0008008965530366302
0.0009789175964971643
0.001194533091133726
0.0014451478067529476
0.001731258828768044
0.0020530710264928574
0.002410229171316642
0.002801784267959572
0.0032261900636411625
0.003681316536803296
0.004164479437412484
0.004672484037981647
0.005201680177984824
0.0057480268343035245
0.0063071783516158745
0.0068746115700371105
0.007445825880267347
0.008016611701778762
0.008583325734049478
0.009143093798265006
0.009693845465290302
0.010234215028824805
0.010763406575120468
0.01128111082554655
0.01178757479894061
0.012283719384965957
0.012771287448074277
0.013252915017438919
0.013732144206776545
0.01421338638821825
0.014701869689995374
0.015203586387409363
0.01572524501176677
0.016274225753020215
0.01685853495459909
0.017486747914675905
0.018167844325650325
0.01890960398526388
0.01969603059280511
0.02015561062698057
0.0006667064249123653
0.0007547396471884225
0.000934330125755055
0.0011537600781640997
0.0014103905030722235
0.0017045963693997335
0.0020364361946876896
0.0024053866769446295
0.00281030507316202
0.0032494194924963605
0.003720335621449015
0.004220061021597621
0.004745048223339709
0.005291257786810847
0.005854245082874321
0.006429277384154546
0.007011491191128124
0.007596091160515249
0.008178575173181983
0.008754949966890377
0.009321889099079614
0.009876809293304336
0.010417870972283432
0.010943943884903547
0.01145459293801116
0.011950100263703859
0.01243153100030594
0.012900800740320063
0.01336072736123651
0.013815046711564596
0.014268400322088839
0.014726305450294044
0.015195119694001162
0.01568200644946512
0.016194902602052964
0.016742486020616315
0.01733413258734156
0.01797976875333384
0.018688316925134677
0.0194456535284802
0.019890645148292307
0.0006141962953660978
0.0007023270005878163
0.0008837236335884769
0.0011075226261023933
0.0013710234206394528
0.0016744605263693535
0.0020177334222912075
0.0024001410282295014
0.0028203365073138135
0.0032763080523602033
0.003765376590373151
0.00428421410957461
0.004828886581248423
0.00539492516688287
0.00597742919155994
0.0065712040243558235
0.007170933682367061
0.007771381325007238
0.008367600659895332
0.008955132915574641
0.009530164769887446
0.010089632398505967
0.010631275300024494
0.011153658859137047
0.011656187341918665
0.012139125533635164
0.012603628914793549
0.013051777033811208
0.01348659696335361
0.013912071695231178
0.014333132712987534
0.014755642929920943
0.015186376193774834
0.015632998534412114
0.016104052723980675
0.01660894438953674
0.017157919888145738
0.01776194417516926
0.01843121305169019
0.019153777325740223
0.019581162631354593
0.0005557989515726352
0.0006439969242656746
0.0008273638197597334
0.0010560182633451154
0.001327180084396745
0.001640928258833254
0.001996998527720869
0.002394513226035841
0.0028319228389946053
0.003306971869364755
0.0038166830249873997
0.004357366317466179
0.004924659542497674
0.005513605152161485
0.006118766363239138
0.00673438216001328
0.007354556216919675
0.007973468750609112
0.008585594506288664
0.00918590699209923
0.009770050989014236
0.010334472784069518
0.010876507627579824
0.01139443247371594
0.011887496504391812
0.01235593957110063
0.012801005094212782
0.013224947599818534
0.013631034346474875
0.014023539817925548
0.014407735123674933
0.014789875958430903
0.015177193689786542
0.015577892815418673
0.016001155912706167
0.016457154103744116
0.01695705323261749
0.01751292688509205
0.01813635596679191
0.018817872470351178
0.019224260880398834
0.000492190536647137
0.0005803442450901336
0.0007657067682654561
0.0009995661779465675
0.001279047152005346
0.0016040641414294394
0.001974196179378748
0.0023884051421969627
0.002844955524202474
0.0033413570868409213
0.003874328259008827
0.004439790250825468
0.005032901070642329
0.005648135829495597
0.0062794156609210635
0.0069202825871169105
0.00756411193636456
0.008204348413923587
0.008834747809878965
0.00944960514382419
0.010043952530184566
0.0106137158645822
0.011155826792589155
0.011668293343113718
0.012150236676888176
0.01260190306549429
0.01302465904562857
0.013420975995846138
0.013794409048214223
0.014149574593986738
0.014492130813385434
0.014828765901016668
0.015167197927288392
0.015516189009673729
0.015885574146916336
0.016286302185798553
0.01673047881725384
0.017231326022339274
0.017801892699979272
0.018435495351888227
0.01881711253164233
0.0004244179447393233
0.0005122845310370567
0.0006994384828446006
0.0009386206970621803
0.0012268517847304128
0.0015638826534599348
0.0019491594954049738
0.0023815202973365445
0.002859080629922902
0.0033791411023462066
0.00393811926342345
0.0045315202816197855
0.00515395915787206
0.005799242848498032
0.006460514662783897
0.007130456254513922
0.0078015354971858976
0.008466282524040733
0.009117572463438112
0.009748892960702074
0.010354577389855919
0.010929990572613702
0.011471660876987571
0.011977359684101286
0.012446134588157172
0.012878306034841676
0.013275438431266946
0.013640296409407972
0.013976796292112846
0.014289961375100082
0.014585888738956958
0.014871733780688267
0.015155717211814771
0.015447157087652891
0.015756525858186845
0.016095529137697018
0.016477195499087858
0.01691589507975452
0.017426188200680957
0.018004464249737197
0.01835716322933171
0.00035397387435417857
0.0004411139282273645
0.0006295069187657756
0.0008737740853405538
0.001170835280558281
0.001520293983554095
0.0019215107179958826
0.002373263970253303
0.0028735851759174673
0.0034196141465558565
0.004007484215833315
0.004632257526029917
0.0052879284663239195
0.005967506669666602
0.006663182451940305
0.007366567891625572
0.008068997443201028
0.008761864491027407
0.009436965998611489
0.010086827130496811
0.0107049816321783
0.011286190721240211
0.01182659203874691
0.012323778934780066
0.012776817784712756
0.01318621612442883
0.013553857163085414
0.013882916773780844
0.014177778123896378
0.014443957230101454
0.014688050213506363
0.014917710702537335
0.015141662963072537
0.015369753842046108
0.015613043552219616
0.015883931560442516
0.01619630519515962
0.01656563290670239
0.01700797928188771
0.017523066433972962
0.017842368243778422
0.0002828575675613158
0.0003685545342718914
0.0005571389010563607
0.0008057436310060913
0.00111121057117834
0.0014730325673260607
0.0018905627925785958
0.0023626222305071563
0.002887261277535981
0.003461539455002844
0.004081341711611446
0.004741261600828729
0.005434576561745594
0.0061533312860467485
0.006888533144413377
0.007630450193823242
0.008368989318743095
0.009094121712933554
0.009796317236973473
0.010466949255707379
0.011098637107108752
0.011685503299711313
0.012223334719899243
0.012709649320717128
0.013143679997510085
0.013526294634997263
0.013859874881781671
0.014148176996008212
0.014396196034595719
0.014610051610752515
0.014796909188210349
0.014964947180855972
0.015123376171530081
0.015282513687910983
0.015453915071089295
0.015650557462800363
0.015887064689794603
0.01617989249640778
0.016546544997257967
0.016990292815212145
0.01727146370207161
0.0002136037388034441
0.0002967702517280967
0.00048383191032230294
0.0007353392926293272
0.0010481044098608642
0.001421572140753913
0.001855206008947193
0.0023480229544803302
0.002898250422899105
0.0035029939627233913
0.004157953806583799
0.004857232819236244
0.005593270503918086
0.006356926093481286
0.007137717000739714
0.007924199890178408
0.008704462303978996
0.009466677862159342
0.01019966963896179
0.010893426815773852
0.01153952864580014
0.012131444946655565
0.012664700776981832
0.013136910672402044
0.013547702481096062
0.01389856023936915
0.014192619734345602
0.014434449785470909
0.014629848334010143
0.014785676653654047
0.01490974853399885
0.015010785421972414
0.015098443629313146
0.01518341624301527
0.015277610313424225
0.015394399031808002
0.01554894179004354
0.01575850180241096
0.016041887348839556
0.01640609178475316
0.01664426861073185
0.0001492514356592981
0.0002283316781976208
0.00041131116169384666
0.0006634111988172281
0.0009814940705522586
0.0013650386408044506
0.0018137877580305236
0.002327186991944333
0.002903876448916974
0.003541197870324916
0.004234771059222026
0.004978193953570982
0.005762915734671635
0.006578317297156793
0.007412010846897877
0.008250341836122466
0.009079047352445663
0.009884001311709132
0.01065196413336569
0.011371255857364275
0.012032286635972353
0.012627903326567345
0.013153539834305441
0.013607185810163083
0.013989208924938929
0.01430207775221259
0.014550035522282317
0.014738771365130486
0.01487512724703945
0.014966869019259369
0.01502253967639981
0.015051404804193641
0.015063493705979564
0.015069736035809238
0.015082192575619827
0.015114379847581476
0.015181694368063565
0.015301896334833082
0.01549493349830717
0.015771626808607334
0.01596197963727667
9.322928864329413e-05
0.0001661054857422411
0.00034143828003109104
0.0005908021161624573
0.000911161908646111
0.0013021266923631467
0.0017639972005450697
0.002296987714451406
0.002900487075232454
0.0035723516277697976
0.00430828584450539
0.005101386853485147
0.0059419242797799044
0.006817410638860258
0.0077129857572581706
0.008612094783148701
0.00949739334944465
0.010351774181225131
0.011159388832221746
0.011906541478029622
0.012582357531203557
0.013179172488016177
0.013692632934252607
0.01412154366621329
0.01446752331344494
0.01473454440641551
0.014928432892377583
0.015056391575036838
0.015126595878448836
0.01514789340340043
0.015129623745605801
0.015081563671705406
0.015013995373721023
0.014937891959949483
0.014865213648132551
0.014809311516926297
0.014785437406633522
0.01481137819420821
0.014907721632530027
0.015089543164550913
0.015227545459610543
5.198552647511249e-05
0.0001130380339495242
0.000276160341220478
0.0005183424957115557
0.0008366237833463737
0.0012310200105665498
0.0017027874660777505
0.002253361735117287
0.002883346747585596
0.0035915166687885067
0.004373923144272366
0.00522320845608149
0.0061282367395496685
0.007074134589306695
0.008042789230009539
0.009013783611651465
0.009965671145477207
0.010877425641521082
0.011729866870511833
0.012506868405051781
0.013196202847962385
0.013789952809599552
0.0142844956296355
0.014680133704908187
0.01498048191251279
0.015191733918456069
0.015321918772350217
0.01538023392320408
0.015376511686688922
0.015320848715221862
0.015223406695108367
0.015094378489094618
0.014944107113437629
0.014783342845421979
0.014623626353341393
0.014477787540930733
0.014360558747854333
0.014289243874809848
0.014284309542678756
0.014364126858310481
0.01444547546738859
2.3684919374370354e-05
7.206310291471645e-05
0.00021743722706624727
0.0004466850729682137
0.0007571381811804347
0.0011495708569264674
0.0016266418216506753
0.0021916086887292883
0.002846933902215744
0.0035929017337593596
0.004426332399843169
0.005339546385418
0.006319749477263835
0.0073489985544974434
0.00840484547048597
0.009461649660181001
0.010492415558363251
0.011470893376883272
0.012373614997550507
0.013181553702730412
0.013881185313695097
0.014464864857240637
0.014930566483918805
0.015281136171503373
0.015523252866870323
0.015666294491814656
0.0157212679005899
0.01569991238862993
0.015614033948168668
0.015475086732775678
0.015293989709680648
0.01508115252389153
0.014846680764227915
0.014600735045466683
0.014354026245097256
0.014118439116727034
0.013907775553426061
0.013738635200231589
0.013630851646135601
0.01360545355547025
0.013626006234552363
0.0006919965355340765
0.0010808059164244981
0.0021417923421205966
0.004503855638985504
0.005489994391835002
0.007679724382573665
0.008833091309062
0.011097765390920682
0.012142811879503302
0.01392005437384794
0.014616675268661079
0.015174521226130626
0.015594577511463792
0.015883602958728257
0.01605250530256657
0.01611471205041251
0.014714558679657926
0.01439056720527905
0.013193757871153948
0.01299171070175299
0.0128310857036836
9.770449658182741e-06
4.9125742286564315e-05
0.00017628402302491153
0.00039110554121587766
0.001562179027264688
0.0028245380025646452
0.0036126385432229697
0.006555973518741303
0.009983728558672628
0.013090781642851032
0.01608474495741113
0.01597711525932191
0.015805579186206776
0.015582737601422167
0.01531993393083239
0.015027394210931808
0.014064878153053916
0.013748017962719863
0.013452480056707598
0.01286861838951829
8.816445912640036e-06
3.7433548472199534e-05
0.00014585975137105113
0.00034444777516254586
0.0006313719296425246
0.001009245377878591
0.001484088026982278
0.002063470751376023
0.0027543663249199792
0.0035609301240068303
0.004482301733353933
0.00551069055888328
0.006630089280926371
0.007815984281125713
0.00903633211563363
0.010253841230911004
0.011429286952944647
0.012525296701423324
0.01350989420303862
0.014359153035631818
0.015058561700425773
0.015603035600919423
0.015995806475819913
0.0162465917086278
0.016369481224937057
0.0163809089143168
0.016297954315017946
0.01613709292652875
0.015913412365876584
0.015640246540997164
0.01532915000272422
0.014990131757403215
0.014632080538576904
0.014263334843635971
0.01389237501648865
0.013528634158972127
0.013183454062144525
0.012871180860997707
0.01261049251826482
0.012424398914263194
0.012350810624970022
1.4220273392105608e-05
3.2097936341644276e-05
0.00012311932730478601
0.00030619299826221047
0.0005796425918703641
0.0009467658371127481
0.0014151263619575705
0.0019943509199166856
0.002693707963911219
0.0035195078674613656
0.004472459803712912
0.005545269372680229
0.006720921139603336
0.007972147519167928
0.009262483897186438
0.01054901579098067
0.011786494272590898
0.012932077988795173
0.013949739236321706
0.014813460703557334
0.015508714656680954
0.01603219209300768
0.016390148529219804
0.01659594095011301
0.01666733945522888
0.01662406881199413
0.01648585302903504
0.016271064474774086
0.01599595438376312
0.01567437175625626
0.015317854042375149
0.014935981074198327
0.014536908451042144
0.014128026967793911
0.013716723281335557
0.01331124755205931
0.012921685973908453
0.012561162520812186
0.012246751756282542
0.012004512623682139
0.011900230232290396
2.4098927120133617e-05
3.120940365185236e-05
0.0001042063742940218
0.0002706169199914702