# vtk DataFile Version 2.0
time_10.vtk
ASCII
DATASET UNSTRUCTURED_GRID
POINTS   4141  float 
9.784787269001453e-05         -3.6167684820238274e-17       0.0                           
0.24999999999999983           9.300241904690292e-05         0.0                           
0.5000902461800077            8.282483740594267e-17         0.0                           
0.75                          8.397187981388649e-05         0.0                           
1.0000804223739899            4.35674518481481e-17          0.0                           
1.25                          7.243911102708846e-05         0.0                           
1.5000679897338063            -8.938728092468062e-17        0.0                           
1.75                          5.815751119165466e-05         0.0                           
2.000052775835939             -5.445151646456025e-17        0.0                           
2.249999999999999             4.1104658531687987e-05        0.0                           
2.5000348326629656            -4.4960725446311585e-17       0.0                           
2.75                          2.1484856030779894e-05        0.0                           
3.0000144560392377            -8.975542750748587e-17        0.0                           
3.2500000000000004            5.636431669334056e-17         0.0                           
3.4999917930014997            6.572202144603608e-16         0.0                           
3.75                          -2.4803842102981588e-05       0.0                           
3.9999666966937064            2.204256350193814e-16         0.0                           
4.25                          -5.0746275857154846e-05       0.0                           
4.499940318688332             2.735427312671108e-17         0.0                           
4.75                          -7.795559442209428e-05        0.0                           
4.999912710163032             -5.873398492310247e-17        0.0                           
5.25                          -0.00010635569392220481       0.0                           
5.499883904302722             2.842395480517303e-17         0.0                           
5.75                          -0.00013602958027182231       0.0                           
5.999853753218972             -6.569699075526714e-17        0.0                           
6.25                          -0.00016725733459125377       0.0                           
6.499821912847869             -4.741794659612635e-16        0.0                           
6.75                          9.753451746489105e-05         0.0                           
7.000095219715301             6.751634803095313e-06         0.0                           
7.250007325559266             8.994258971399885e-05         0.0                           
7.500086940112823             8.565464218735169e-06         0.0                           
7.7500092252130885            8.012239164114743e-05         0.0                           
8.000076280514186             1.0606100079363406e-05        0.0                           
8.25001131935414              6.768446728491031e-05         0.0                           
8.500062920212352             1.2771359055327103e-05        0.0                           
8.750013502212209             5.245497056717087e-05         0.0                           
9.000046760370711             1.4954961284537571e-05        0.0                           
9.250015669979723             3.4482146718329224e-05        0.0                           
9.500027919459471             1.706151247700879e-05         0.0                           
9.750017731914303             1.400932582039472e-05         0.0                           
10.000006668133283            1.9009877383787917e-05        0.0                           
1.9724429006874028e-05        0.2999911824927336            0.0                           
0.249983066277369             0.30002099741974564           0.0                           
0.5000215612531898            0.29996625699606455           0.0                           
0.7499576088298568            0.30002265708949855           0.0                           
1.0000231909861927            0.29993987255561727           0.0                           
1.249930797439058             0.3000242399322105            0.0                           
1.5000247603667543            0.29991225257829657           0.0                           
1.7499027842608028            0.3000258091980048            0.0                           
2.0000263446389965            0.2998834414821389            0.0                           
2.2498735537112284            0.3000274558037333            0.0                           
2.500028038755853             0.2998532931414719            0.0                           
2.7498428921595535            0.30002927643095023           0.0                           
3.0000299372672257            0.2998214620548282            0.0                           
3.249810392764065             0.3000313564020678            0.0                           
3.500012402166038             0.30009429032211354           0.0                           
3.7500917766744597            0.3000146328694996            0.0                           
4.000015846371399             0.3000860353317609            0.0                           
4.250082770566628             0.3000184404398965            0.0                           
4.50001980682165              0.3000753784738645            0.0                           
4.750071229496351             0.3000226392836809            0.0                           
5.000024089163007             0.3000619928071453            0.0                           
5.250056900421791             0.30002701618828853           0.0                           
5.500028478097652             0.3000457759924898            0.0                           
5.750039754576305             0.3000313639995653            0.0                           
6.000032775974866             0.3000268336147594            0.0                           
6.2500199521002715            0.30003551592876426           0.0                           
6.500036842962406             0.30000537419017587           0.0                           
6.749997718551208             0.30003947529783126           0.0                           
7.000040750891643             0.2999817433093818            0.0                           
7.249973441930701             0.3000431180262003            0.0                           
7.500044235368055             0.29995629782983924           0.0                           
7.7499474885902835            0.3000463947011961            0.0                           
8.000047447725743             0.2999294475487864            0.0                           
8.249920228135393             0.3000495290614223            0.0                           
8.500050570261926             0.29990140402907633           0.0                           
8.749891796749354             0.30005268889117903           0.0                           
9.000053781055586             0.29987216555735263           0.0                           
9.249862123223972             0.30005606797865614           0.0                           
9.500057276923878             0.2998415197772679            0.0                           
9.749830925359614             0.3000598581429608            0.0                           
10.000061241617978            0.29980905224328336           0.0                           
9.502497119610606e-05         0.6000185494744145            0.0                           
0.25002017393196035           0.6000902432603336            0.0                           
0.5000875122784523            0.6000237290174402            0.0                           
0.750025643089395             0.6000812683064095            0.0                           
1.0000777219241932            0.6000296926092696            0.0                           
1.2500318047705468            0.6000697176193309            0.0                           
1.5000652432924722            0.6000361428102603            0.0                           
1.7500383442133531            0.6000553310255499            0.0                           
2.000049893698685             0.6000427532684774            0.0                           
2.250044939476328             0.6000380766790804            0.0                           
2.500031711012894             0.6000492293638936            0.0                           
2.7500513193276577            0.6000181095328523            0.0                           
3.000010893747145             0.6000553767567208            0.0                           
3.2500573470661145            0.5999957129822493            0.0                           
3.4999877866454883            0.6000611478906955            0.0                           
3.750062955082704             0.5999713230517092            0.0                           
3.999962809704838             0.6000663812945342            0.0                           
4.250068020225565             0.5999452921882443            0.0                           
4.499936313648125             0.6000711998415648            0.0                           
4.750072758998033             0.5999179603447494            0.0                           
4.999908594777294             0.6000758653258662            0.0                           
5.250077433792738             0.5998894884095751            0.0                           
5.499879740326934             0.6000806572343175            0.0                           
5.75008233491552              0.5998598151347799            0.0                           
5.999849614060729             0.600085877456588             0.0                           
6.250087762937493             0.5998286555711804            0.0                           
[...]
POINT_DATA  4141
SCALARS Con float 1
LOOKUP_TABLE default
0.0012379080805932738
0.001356458615885445
0.0015921994892036356
0.0018688891462946267
0.002182808082628592
0.0025350648847186977
0.002926537552130535
0.0033574675810528606
0.0038274007560127584
0.004335178372229719
0.004878956410912005
0.00545624886060054
0.006063990296978487
0.00669860953479393
0.007356101643807611
0.008032075296801965
0.008721777770380785
0.009420032596703706
0.01012298494511673
0.01083746749614066
0.011644672888154975
0.012462041982216447
0.013204990269138872
0.013913031089934708
0.014626426374379699
0.015343048881374657
0.01606384072266593
0.016790371013309883
0.01752538255315191
0.0182725562476426
0.019036386574310903
0.019822068637899152
0.02063539997721743
0.021482686884830803
0.022370650716629387
0.02330633073150493
0.024296974507034757
0.025349795452399723
0.02646982486306563
0.027628271923606836
0.028293366280887293
0.001262881393379138
0.0013844218159970623
0.0016251397380971518
0.0019072150315871787
0.0022269414524814543
0.0025853311835014555
0.002983164264136053
0.0034205779545501552
0.0038970127162580334
0.004411208244139225
0.004961228528869217
0.005544513114493996
0.006157952179333825
0.00679798336553212
0.007460711350963267
0.008142073180879271
0.008838098084068696
0.009545838167555974
0.010264580621098874
0.011014956333319713
0.011779672198726648
0.012534515178316748
0.013272269660534373
0.014005335295535761
0.014728243599267301
0.015449795414130746
0.01617289476311091
0.016900612616925745
0.01763639746723999
0.018384359019789995
0.019149279484090138
0.019936574111393286
0.0207522246650772
0.021602700999717842
0.022494874635440205
0.02343592488658948
0.024433229821672276
0.02549412506826758
0.02662369981260173
0.027793548461300503
0.028465946443096888
0.001251115970997256
0.0013724840028067737
0.001613512710733077
0.0018965766207663546
0.0022178980963326734
0.0025784675694645997
0.002979027869374669
0.003419673989937548
0.0038998022249174687
0.004418111212654835
0.004972634510714038
0.005560804652299517
0.006179551432411706
0.006825442225919429
0.007494886952328931
0.008184453472432312
0.008891471650595636
0.009614682071893246
0.010357652251269285
0.011098951885769382
0.011812448032417435
0.01253075099449521
0.013275965686261245
0.014017007064609538
0.014750008238718129
0.015476458689801685
0.01620091936770424
0.016927343934270273
0.017659889372336063
0.01840311659841405
0.01916212377700607
0.019942571379394952
0.020750657414028352
0.02159306350600518
0.022476883431003344
0.023409538413662626
0.024398672725676963
0.025451905846741403
0.026574623032859557
0.027738324881868733
0.02840717092739103
0.0012305470588485597
0.0013519145862008854
0.0015935397952096357
0.00187821109508071
0.002202153312813542
0.0025663065964067534
0.002971350385137932
0.003417305311858671
0.0039034874471034244
0.004428514441985789
0.004990344631619581
0.005586349882104984
0.006213425242345659
0.006868140612461393
0.007546938389649759
0.008246378968190447
0.008963261178254524
0.009694603409082975
0.01043147511167333
0.011162965272215044
0.011888211808821672
0.012611694626680029
0.013339570929048035
0.01407348024662232
0.014803987679663634
0.015529262401561114
0.01625095149696385
0.016972501447726482
0.017698057322721922
0.018432371083694627
0.019180780116895856
0.019949203296942476
0.020744114774053475
0.021572497417972823
0.022441779073958116
0.02335975337645821
0.024334476466936962
0.025374013051965922
0.026484205576095814
0.027637226301266398
0.028300881518593408
0.0012014822163046686
0.0013228466013438737
0.0015653656754226486
0.0018523520707412788
0.002180022545429665
0.002549247575920312
0.00296061259736597
0.003414027697317986
0.003908685691482049
0.004443071320194427
0.005015002157308728
0.0056217006451401395
0.006259896078640824
0.006925950005204596
0.007615985542326225
0.008325946349460428
0.009051486194903103
0.009786867586427621
0.010525511205017258
0.011261863408331983
0.011993136724293316
0.012721029924849617
0.013447978501425394
0.014173570580476072
0.014896509895080727
0.015614707318431644
0.016328675877890404
0.01704083720678973
0.017754942141169582
0.018475667952027708
0.019208465017918112
0.019959474596237967
0.020735470773962282
0.02154380228520686
0.022392326260807116
0.023289329172395942
0.024243422790135596
0.02526328959836612
0.026355471954256124
0.027493276532275367
0.028149662046633505
0.0011636759012041053
0.0012850788902610355
0.0015288248998750105
0.0018188754449618959
0.0021514275625910797
0.0025272555087885265
0.0029468185980201745
0.0034098778195681217
0.00391545648427378
0.004461849558612795
0.00504666173389643
0.005666871802349195
0.006318918246428116
0.0069987936593770995
0.0077021196173309055
0.008424163310326263
0.00915968979439535
0.00990307131222038
0.010648706404122042
0.011391963711667036
0.012130242861020608
0.012862732384155586
0.013589528776425882
0.01431066083916659
0.015025462907361432
0.015733681716721026
0.016435932605641176
0.017134325939379504
0.01783231332584041
0.018534471792642122
0.01924632400024892
0.019974222630999454
0.02072526589736563
0.021507225503061212
0.022328474806844887
0.02319790901070668
0.024124843720263214
0.025118768521381226
0.02618718603412586
0.027304839640994977
0.027951435964107603
0.0011168994813404668
0.001238399871123362
0.0014837505152517768
0.00177766351682126
0.002116301168681213
0.002500313539776464
0.0029300009879847286
0.0034049374767135443
0.003923931958837193
0.0044850353924059914
0.0050855734129961055
0.005722201758661185
0.006390979182644967
0.007087447346856475
0.007806704255477595
0.008543456429601028
0.009292122869410856
0.01004704120099173
0.010802892246125758
0.011555239334318297
0.01230088284630313
0.013037902208701671
0.013765283727054278
0.014482463384644987
0.015189233666937398
0.015885832256715436
0.01657337660728817
0.017254085701170405
0.017931401396054623
0.018609923618191762
0.01929530518649757
0.01999414978472417
0.020713926217984638
0.02146289311622608
0.022250026753244626
0.023084944471630883
0.023977810084968663
0.024939100669095916
0.02597747915774855
0.0270694256336552
0.02770341723348647
0.0010609772356929962
0.0011826491994821572
0.0014300176276049153
0.0017286357250614129
0.0020746104120581317
0.0024684383006496322
0.002910229524714486
0.003399336780957366
0.003934315373154395
0.004512925842586464
0.005132160262978583
0.005788290663361549
0.006476936960411736
0.0071931503997988665
0.007931509843016054
0.00868624520059661
0.009451408658188793
0.010221131676470534
0.010989953778790508
0.01175315703367779
0.012507006420310086
0.013248800335879015
0.013976766703111158
0.014689917730141135
0.01538796090893198
0.016071376408190438
0.0167415491294314
0.017400934347048157
0.01805313704299199
0.018702923755995148
0.019356175390816858
0.02001982003862778
0.020701763561695133
0.021410823733619206
0.02215666627922236
0.022949737900847245
0.02380118336016535
0.024722625771357087
0.025724081088863454
0.026784127827566093
0.027402332076869793
0.0009958536402405963
0.0011177743876769446
0.001367589746457671
0.001671781172946353
0.002026375065343878
0.0024316849919602296
0.0028876033217617248
0.0033932339173338055
0.00394684787215137
0.004545879157559729
0.005186943425695607
0.00586588098827205
0.006577825040606271
0.007317295956283294
0.008078325434460526
0.008854617213522138
0.009639754958501879
0.010427456154112955
0.011211853192359034
0.011987757708509725
0.012750855803071013
0.013497806707339348
0.014226254405089758
0.014934797307370592
0.015622977034375415
0.016291304826935454
0.016941334438110252
0.017575736567644676
0.018198355229346763
0.01881422275494703
0.019429541786055698
0.02005164547416031
0.020688949724261184
0.02135090457072769
0.022047946159230114
0.022791446412838635
0.02359364784281277
0.02446746433547127
0.025424456210988294
0.02644568620027007
0.02704449078795999
0.0009216715290420153
0.0010439003369341231
0.0012965708714862878
0.0016071925246349467
0.001971682664938925
0.002390143697262628
0.002862229142989035
0.0033867763145638023
0.00396175298600726
0.004584241777370475
0.005250448569445848
0.005955739130620673
0.006694708330802532
0.007461285665328955
0.008248880238250291
0.009050567668930018
0.009859316998022075
0.010668248022207559
0.011470897578181238
0.012261465303736592
0.013035010609017605
0.01378758534034836
0.014516306568475556
0.015219391058337403
0.01589617545938094
0.016547142747113382
0.0171739557953766
0.017779493172036243
0.018367873223959896
0.01894446081099881
0.01951585553117071
0.020089868050787916
0.02067549128393706
0.0212828720480514
0.02192328473886417
0.02260910467410545
0.023353768966319213
0.02417160837040301
0.02507590525934569
0.026050610605332685
0.026625920622626056
0.0008388640854789063
0.0009614091672418066
0.0012172629128030545
0.0015350993542525286
0.001910697386164668
0.0023439242051271647
0.0028341835990386595
0.0033800424440630517
0.003979160795583206
0.00462825796224405
0.005323104802215703
0.00605855001829386
0.006828587812540386
0.007626472052562972
0.008444879087246957
0.009276117215592924
0.010112375197205953
0.010945995186355254
0.011769749318550037
0.012577096277186766
0.013362397388066808
0.014121080557206744
0.014849751978705866
0.015546264840826659
0.016209759243112905
0.01684068514016928
0.01744081638495343
0.018013257259827893
0.018562441583154062
0.019094123649156688
0.019615363323698013
0.020134509295410625
0.02066118536935226
0.02120628314652018
0.021781961971758655
0.022401653357761963
0.023080057629708575
0.023833019690252602
0.02467569668037165
0.025595340088857402
0.026142541092725503
0.0007482590868899675
0.0008710289660321241
0.0011302258130211384
0.0014558979323087405
0.0018436592642611014
0.0022931257567613762
0.002803455913863807
0.0033729615772157143
0.003999010076665317
0.004677961164920064
0.005405133943833688
0.006174815792880382
0.006980323921311592
0.007814126147493418
0.008668022103279039
0.009533379735056555
0.010401415108539055
0.011263497318596008
0.012111456065190844
0.012937868888470778
0.013736308659422073
0.014501539118819224
0.015229654829938578
0.015918169799131056
0.016566063677281872
0.017173796482388485
0.017743301702271716
0.018277965923517468
0.01878260144402767
0.019263417457421685
0.019727995185960176
0.02018527237956912
0.020645541506832947
0.021120464346359582
0.021623102907121116
0.02216796309869878
0.02277103835403792
0.02344974418474456
0.024221226718562062
0.02507644662564669
0.02559039063056751
0.0006511911111480956
0.0007739271304285886
0.0010363359585089866
0.0013701728955964004
0.0017708692819181117
0.0022377872957981587
0.0027698670076701545
0.0033652073953724824
0.004020924240351653
0.004733042232178731
0.005496422859455789
0.006304745636123822
0.007150557575855539
0.008025399649981052
0.008920010976135349
0.009824602627458207
0.010729184563412241
0.011623922474492735
0.012499497681320658
0.013347443593616533
0.014160436383970798
0.014932524955462352
0.015659293776914215
0.016337960436685145
0.016967416012136298
0.017548220255707427
0.018082565211334414
0.018574220589052937
0.01902847337462941
0.019452072423452222
0.019853187451272937
0.020241389844111977
0.020627660818845046
0.02102442962330346
0.021445641301289474
0.02190684938341914
0.022425319796103158
0.02302004106274184
0.023710209274902475
0.024490883454970372
0.024965906230516813
0.0005496135369107093
0.0006718003629262891
0.0009368358704334389
0.0012787048056842742
0.001692655244392496
0.002177814007121466
0.0027329610124639148
0.0033560613768969577
0.004044056446297009
0.0047926888920017735
0.005596372005715349
0.006448128553788909
0.007339620482821451
0.00826128144520312
0.00920255272915844
0.010152210992575817
0.011098765110120548
0.012030891162335479
0.012937870580571942
0.013809997347798237
0.014638925810918815
0.015417939616326069
0.01614213295999145
0.016808505653308364
0.017415982109699406
0.017965370237734375
0.018459279395886596
0.018902017196181765
0.019299483778468008
0.01965907989020383
0.019989642062879086
0.020301415170114186
0.020606069207343484
0.020916763846838
0.021248260481079518
0.021617076526467906
0.02204166580718023
0.022542524969095066
0.02314089246965591
0.023836276420195267
0.024266256395156716
0.0004461951010084811
0.0005669481101337613
0.0008333648846400019
0.001182456348848427
0.0016093144418661786
0.0021128780941338503
0.0026918678536700462
0.0033442442531603413
0.004066901391305227
0.004855393540435053
0.005703717308965843
0.006604187579474344
0.007547437270986603
0.008522557667822213
0.009517379969700365
0.010518881726055692
0.011513686372073756
0.012488612699203563
0.013431225889855488
0.014330343531648304
0.015176458115466522
0.015962050288034303
0.01668178198049297
0.017332572928894112
0.017913575953930682
0.01842607467018521
0.018873331324200056
0.019260413277645286
0.01959402418248164
0.019882362252349836
0.020135022927855503
0.02036295876009892
0.02057850443375697
0.020795471313421268
0.021029312145654906
0.021297351879554463
0.021619068374806573
0.022016318501806655
0.02251229718957952
0.023111252671076467
0.02348972136985713
0.0003443779748107931
0.0004623093251921753
0.0007279568609975067
0.001082531425849815
0.001521033173596121
0.0020422975817281732
0.0026451409556678502
0.0033277180594359222
0.004087075539993568
0.00491873101025238
0.005816327973755806
0.006771420531789085
0.007773429170385025
0.00880979172844094
0.00986631102269544
0.010927676430933824
0.011978113788407548
0.013002101574802295
0.013985083766021459
0.014914112921893841
0.015778369890584214
0.016569525940654816
0.017281935447793804
0.017912668151840967
0.018461406830826893
0.018930246901726875
0.019323439097677746
0.019647115515084062
0.019909034653520737
0.020118374209792237
0.020285592726628495
0.020422374045550588
0.020541662561762816
0.020657792960754054
0.020786715483482134
0.020946316744004725
0.021156826805780366
0.021441220616495067
0.02182446872756244
0.02231579399251547
0.022636113780535243
0.00024835879576375796
0.00036143300816170545
0.0006229913386973974
0.0009801050964779795
0.0014277952858680902
0.001964906884230917
0.0025905788597172354
0.0033034676874196364
0.004101075575224615
0.004979116378845955
0.005930990822436074
0.006947440027207293
0.008016436377025697
0.009123347809277827
0.010251380616733526
0.011382269376706278
0.01249714796962915
0.013577509619987497
0.014606152654732012
0.015568014314490213
0.016450816142109248
0.01724547581257887
0.01794627510653915
0.018550805165055372
0.019059733723132546
0.019476452228796386
0.019806664157243956
0.020057971353149708
0.020239505357808888
0.020361639014975338
0.0204358013731945
0.020474408931671333
0.020490918275999425
0.02050000042743683
0.02051783574063409
0.0205625296549267
0.020654658277561418
0.020817892266462145
0.021078755649754623
0.021451592569906423
0.021707187151820847
0.00016296181211131942
0.0002683489712295861
0.0005210771236276655
0.0008763581096592073
0.0013293105642720984
0.001878924250057552
0.0025250438588359883
0.003267284090846156
0.004104039864646126
0.0050315665833775575
0.006043202859424224
0.007128834282890097
0.008274684022040723
0.009463489762830847
0.010675081431797719
0.011887317951363031
0.013077285923141157
0.014222620372089627
0.015302789292409942
0.016300194612347694
0.017200977994616742
0.0179954733268432
0.018678303141758074
0.019248164873190376
0.019707384962378886
0.02006133377714539
0.020317792617402693
0.020486351574087912
0.020577897995296655
0.020604235170210036
0.020577852713330926
0.020511856105949876
0.020420053465865323
0.02031719279940935
0.020219341832748303
0.02014440687921885
0.020112789907210323
0.020148213660225758
0.02027807283411622
0.020522413349886286
0.020707143145935733
9.618345080683136e-05
0.0001872886036918951
0.0004249936525538291
0.0007724696107076699
0.0012248982707239679
0.0017818125727874301
0.002444319896469062
0.0032136056192293887
0.004089569831458358
0.005069514839304217
0.006147012776325055
0.007311084826840184
0.008545829475363054
0.009830600559331026
0.011140772510264173
0.012449040532842312
0.013727111065383492
0.014947564185652237
0.01608563874715439
0.01712071009643795
0.018037296261502512
0.018825519104424968
0.01948104089323207
0.020004569806662383
0.020401072185792735
0.020678839875386365
0.02084854814888708
0.02092240972306722
0.020913495923862838
0.020835262963563427
0.02070129533797741
0.020525260640347324
0.02032106106346612
0.020103163665143874
0.01988709400838162
0.019690079640828494
0.01953184172164991
0.019435457922198217
0.01942814755495671
0.019534348204646234
0.019642392761575728
4.7989067447791734e-05
0.00012262194427605118
0.00033761128367774983
0.0006693837844784433
0.001113476885156224
0.0016705013670069659
0.0023434524668392224
0.003135910082699754
0.00405013345474962
0.005085223397233893
0.0062354725954935335
0.007489110805126884
0.008827658188443933
0.010226068838029621
0.011653751061424515
0.013076408217478548
0.0144584806667241
0.01576583946808274
0.0169683233819036
0.01804175136637072
0.018969163076205078
0.019741206109000993
0.020355744888513244
0.020816880612817567
0.021133622117081186
0.021318445580779888
0.02138593674076591
0.02135165024657735
0.021231258565414104
0.02104001319173155
0.020792505692406003
0.020502697881436775
0.020184184731222684
0.01985065801011113
0.019516547930811288
0.01919783225629374
0.018912999924755924
0.01868419328920793
0.018537749700497947
0.018501604830286802
0.018527444055377436
0.0010229516930328336
0.0015778189425812367
0.003076332919535315
0.006361620602566934
0.007717502662219307
0.010701556714358618
0.012260324046810895
0.015298622384097491
0.016691690442027285
0.01904885967756245
0.019968517462828576
0.020702684938169444
0.021253312593104264
0.021629702685490457
0.021846437419010465
0.021921312103098795
0.019999920257380708
0.01956058384660223
0.01794110969566561
0.017667366007578286
0.017446491825001322
2.2330373718666654e-05
8.452261587330774e-05
0.0002759728463095685
0.0005897054539815704
0.0022600163791184707
0.004032138317979871
0.005128850947291094
0.009174468555713435
0.013807518799441719
0.017950844703465463
0.02187352560332489
0.021722272819953453
0.021485790431801346
0.02118083919751147
0.020822568193018847
0.02042469237430921
0.019119444212962314
0.018690668509109606
0.01829100169917549
0.017499207759954456
1.5919503561179003e-05
6.319094224112194e-05
0.00022952763099385953
0.0005218311639359632
0.0009370591523530329
0.0014784668574454106
0.002153681657083276
0.0029720673994970723
0.003941733636034039
0.0050665326566785174
0.006343190955903523
0.007758947627614206
0.009290145120044103
0.010902209603237957
0.012551287143158982
0.014187485781137564
0.015759290166861454
0.017218394367499747
0.01852407351395483
0.019646340257390763
0.020567461339560073
0.021281808400575294
0.021794353482541842
0.022118307352922962
0.02227243065453492
0.02227846082990864
0.02215895387070986
0.021935688377095967
0.021628657109424413
0.02125559050111188
0.02083191772684983
0.02037106510762304
0.019885006031088417
0.019385002289156895
0.018882506741516394
0.01839022173430081
0.01792334658946684
0.017501000827996056
0.01714795209473957
0.016894576120246196
0.01679310763603112
1.9140776056806945e-05
5.178222027531195e-05
0.0001945571572848715
0.00046619648529864713
0.0008639144213706127
0.0013919871436381466
0.002060217450755588
0.0028807783519728264
0.003864821897517089
0.0050189299718268725
0.006341637892588673
0.007820442140592274
0.009429879729490538
0.011131284277641094
0.012874632278929682
0.014602479513493371
0.016255453030825245
0.01777829968361994
0.019125302204427493
0.020264053755344052
0.021177056604812818
0.021861176249639475
0.02232543364017363
0.02258784173146031
0.022671990686154473
0.022603930736200175
0.022409685710042718
0.022113525314882542
0.021736972395497937
0.021298433697175337
0.020813310622914173
0.020294453928099254
0.01975285549989404
0.01919850786849098
0.01864139787424842
0.018092640546606174
0.017565746321732762
0.017078186858677635
0.016652544485946125
0.016323346807861367
0.016180572615897865
2.9233756650210355e-05
4.706586383541324e-05
0.00016517879705581695
0.0004143461205726987
0.0007923470142059721
0.00130459304273968
0.001963310339722319