# vtk DataFile Version 2.0
time_10.vtk
ASCII
DATASET UNSTRUCTURED_GRID
POINTS   4141  float 
0.00011595571902528184        2.6947189986621406e-17        0.0                           
0.2499999999999997            0.0001101888642186431         0.0                           
0.5001069110407143            1.6255078313989783e-17        0.0                           
0.75                          9.945700996705425e-05         0.0                           
1.0000952444412885            1.4597520090385133e-17        0.0                           
1.25                          8.577932651246104e-05         0.0                           
1.5000805086915845            -1.7767231865567882e-16       0.0                           
1.75                          6.887029287991057e-05         0.0                           
2.000062503712528             -3.556962459240956e-17        0.0                           
2.25                          4.870183595443123e-05         0.0                           
2.500041286068693             2.186725922257013e-17         0.0                           
2.75                          2.550059421854313e-05         0.0                           
3.0000171808029323            1.4570573076462138e-17        0.0                           
3.25                          4.740898788837549e-17         0.0                           
3.499990384487219             1.8839085632565478e-16        0.0                           
3.75                          -2.9159638193097127e-05       0.0                           
3.9999608102289175            6.415604899632907e-17         0.0                           
4.25                          -5.9798792410297365e-05       0.0                           
4.4999296329367855            1.2222358074196509e-16        0.0                           
4.75                          -9.200534338766147e-05        0.0                           
4.999896929816371             -1.017518682593733e-16        0.0                           
5.250000000000001             -0.0001256965435179244        0.0                           
5.4998627317155915            2.6350481094763482e-17        0.0                           
5.749999999999999             -0.00016097547811745638       0.0                           
5.999826862202486             1.6875744077490728e-17        0.0                           
6.25                          -0.00019816594264124272       0.0                           
6.499788927103138             -1.2443787907802157e-15       0.0                           
6.75                          0.00011558353003784712        0.0                           
7.000112827825781             8.03657115088859e-06          0.0                           
7.25000871656536              0.00010655014688224152        0.0                           
7.500102981754166             1.0182948080880027e-05        0.0                           
7.750010962145038             9.488763349056094e-05         0.0                           
8.00009033110061              1.2591523569912635e-05        0.0                           
8.250013432605552             8.014556248563476e-05         0.0                           
8.500074504855345             1.5144386153517382e-05        0.0                           
8.750016006029297             6.212237247901151e-05         0.0                           
9.000055387767214             1.771956432763752e-05         0.0                           
9.250018563698905             4.0871202498516486e-05        0.0                           
9.500033112767587             2.020920947771092e-05         0.0                           
9.750021004042404             1.666591894864706e-05         0.0                           
10.000007987850504            2.2525833256702253e-05        0.0                           
2.3356899196066864e-05        0.2999897032087435            0.0                           
0.2499801284571432            0.30002486050979327           0.0                           
0.5000255378600513            0.29996029041492683           0.0                           
0.7499500745117864            0.30002685679624064           0.0                           
1.0000275011264743            0.2999291019454412            0.0                           
1.249918359760117             0.30002877081172397           0.0                           
1.5000294024270306            0.299896384207791             0.0                           
1.749885151776148             0.30003067745877565           0.0                           
2.0000313287784723            0.2998621794846019            0.0                           
2.2498504238534474            0.30003267921382054           0.0                           
2.5000333862238096            0.2998263130583743            0.0                           
2.7498139256689766            0.30003488214859386           0.0                           
3.000035677543237             0.29978838871783864           0.0                           
3.24977519408319              0.30003737777466155           0.0                           
3.5000147671926922            0.30011172362466715           0.0                           
3.7501087321458764            0.30001741211595623           0.0                           
4.000018848021005             0.30010190595372066           0.0                           
4.250098028346997             0.3000219130009003            0.0                           
4.500023525683876             0.30008925806017256           0.0                           
4.7500843403388275            0.3000268663830668            0.0                           
5.000028575714954             0.3000734017215385            0.0                           
5.250067375403495             0.3000320263295374            0.0                           
5.5000337501810685            0.3000542183511447            0.0                           
5.750047099812675             0.30003715552370985           0.0                           
6.000038823469817             0.3000318292068745            0.0                           
6.250023698430891             0.30004206511692216           0.0                           
6.500043637239564             0.30000648323496304           0.0                           
6.749997442822057             0.3000467461630408            0.0                           
7.000048254121488             0.2999785767825681            0.0                           
7.249968772972586             0.3000510767270757            0.0                           
7.500052417833653             0.2999485176935799            0.0                           
7.749938102121526             0.3000550193934019            0.0                           
8.000056292476442             0.29991675143342533           0.0                           
8.249905829620122             0.3000588161593192            0.0                           
8.500060081448185             0.2998835053340291            0.0                           
8.74987209914543              0.30006265851883646           0.0                           
9.000063986699464             0.29984876712864894           0.0                           
9.24983681977766              0.300066762891193             0.0                           
9.500068226273301             0.2998122872443843            0.0                           
9.749799664115336             0.3000713381607176            0.0                           
10.000072998495282            0.299773592242685             0.0                           
0.00011260292283696612        0.600022088577156             0.0                           
0.2500240161368585            0.6001069098269591            0.0                           
0.5001036611673985            0.6000282251875422            0.0                           
0.7500304876132631            0.6000962417899612            0.0                           
1.0000920324064535            0.6000352685263834            0.0                           
1.2500377600804526            0.6000825416489349            0.0                           
1.5000772413248715            0.6000428748201537            0.0                           
1.7500454698037748            0.6000655086200117            0.0                           
2.0000590770083404            0.6000506678231271            0.0                           
2.250053246355855             0.6000451066376807            0.0                           
2.5000375842775315            0.6000583102553892            0.0                           
2.7500607799821193            0.6000215173928464            0.0                           
3.000012996758545             0.6000655791308813            0.0                           
3.250067910657893             0.5999950719780954            0.0                           
3.499985710549306             0.6000724149893363            0.0                           
3.7500745656455012            0.5999662610724199            0.0                           
3.9999562005636586            0.6000786653831481            0.0                           
4.250080635984606             0.599935487807597             0.0                           
4.499924863437319             0.6000844741336604            0.0                           
4.750086362702584             0.599903125515542             0.0                           
4.999892021546662             0.6000901349381264            0.0                           
5.2500920426496664            0.599869344465721             0.0                           
5.499857762289539             0.6000959637468466            0.0                           
5.750098002229493             0.5998340643544698            0.0                           
5.999821920828443             0.6001022953653574            0.0                           
6.250104572204558             0.5997969536981856            0.0                           
[...]
POINT_DATA  4141
SCALARS Con float 1
LOOKUP_TABLE default
0.0017598519138579624
0.0019266845882092752
0.0022582734110592876
0.002646825134047681
0.0030869643153840633
0.0035801335061517157
0.004127465784868467
0.004729221089061573
0.0053847111403359325
0.006092295168444699
0.006849414559781881
0.007652660990171044
0.008497871439432762
0.009380239543917476
0.010294427745124953
0.011234652316657595
0.01219475212682719
0.013168126313710178
0.014150061093159551
0.015146925615909636
0.01625002913790444
0.017369428858245235
0.018408934532178935
0.019405993177133443
0.02041108592895699
0.021422048959262533
0.022440548208365847
0.023468977657906183
0.02451118398741287
0.025572180785447065
0.026657990059932354
0.02777549155444922
0.028932286899152112
0.03013656727685047
0.03139698001315014
0.032722491056682616
0.0341222347349367
0.03560520289896651
0.03717746480689348
0.03879947995430883
0.03972949667728962
0.0017954847007852256
0.001966522196269681
0.0023050952520038167
0.0027011882489533915
0.003149445523794108
0.003651175030438294
0.00420737324336339
0.00481815486724371
0.0054826848344425175
0.0061991803699798145
0.006964953145533625
0.00777648714206245
0.00862954845811081
0.009519323487082433
0.010440585161383376
0.011387913590729956
0.012356018550889124
0.013340881574811845
0.014340878835395915
0.015380948360739194
0.016439569134750073
0.017486334402961372
0.01851458620913112
0.019541410342285154
0.020557794325326798
0.021574731028997634
0.022596099594081768
0.023626100640385894
0.02466944243959501
0.02573167487517631
0.02681918871173499
0.027939152074141563
0.029099412008560845
0.030308380087969475
0.031574907441587474
0.03290815102266688
0.03431742367090115
0.03581188361258947
0.037397664527422575
0.03903568939403011
0.039975886456639624
0.0017793085234464336
0.001950103412457447
0.0022891099725390837
0.0026865806700732647
0.0031370610073760065
0.0036418282065823057
0.004201824879200157
0.004817103201512673
0.0054867609801288394
0.006208949995548983
0.006980927280174813
0.007799148259437763
0.00865940402636785
0.009557010758393287
0.01048707671967716
0.011444898011914768
0.012426698069763138
0.013430363742175997
0.014459762697947565
0.015488085287271752
0.01648693072452782
0.017493783797077816
0.01853164320540939
0.019566091363374668
0.02059360086491288
0.021615564168828216
0.02263771251406952
0.023665211857156938
0.02470359275098498
0.025758943690963886
0.026838047138573524
0.027948388788217517
0.029098107587311847
0.030295910097104122
0.0315509631779306
0.03287277080488204
0.03427102783198913
0.035755293096141644
0.03733208316303431
0.0389620175945182
0.03989737429364687
0.0017509635577219833
0.001921750773378621
0.0022615806096970203
0.0026612817638316474
0.0031154035958043313
0.003625152143032736
0.004191378475511131
0.004814025799603883
0.005492072429888843
0.006223546791213434
0.007005586950467992
0.007834544624369227
0.008706136336958197
0.009615646757551126
0.010558187336079253
0.011529011629288941
0.012523673010956053
0.013538053199033836
0.01456089030335756
0.015579507215260649
0.016592312594943207
0.017604316284622584
0.018622701650874006
0.01964892123729246
0.02067255304530386
0.02169195764279883
0.022709382979483505
0.023729390426110077
0.024757488655900217
0.02580000361180622
0.026864027510641885
0.027957392551157152
0.029088618302340073
0.030266834175996273
0.03150168030298644
0.032803188787779665
0.03418163404379398
0.03564718734584193
0.03720696663532388
0.038822431728563915
0.039750775853453296
0.001710884667595971
0.001881656144382075
0.002222722932782751
0.002625643017797445
0.003084954342130658
0.0036017641401142886
0.004176788508875496
0.004809810368925119
0.005499627938976631
0.006244074217695456
0.007040079419819605
0.007883774744567293
0.008770635172029537
0.00969565238840963
0.010653513493928063
0.01163869516973444
0.012645361130881456
0.013666065603796802
0.014692592832197635
0.015717912867759032
0.01673850318323106
0.017756022342879204
0.018773046188915312
0.01978917839126992
0.02080305181517427
0.021812623697160298
0.022818969960945533
0.023825468744440182
0.024837185073023717
0.025860383430848014
0.026902330780972174
0.027971179574089174
0.029075877973519466
0.030226078121830563
0.03143203261463398
0.032704473050552796
0.03405445452427038
0.035493004919987796
0.03702819926238095
0.03862309105400903
0.039541783565761025
0.001658701275631792
0.0018295137775152087
0.0021722847017606596
0.0025794754861783943
0.0030455961695323363
0.0035716175718076555
0.004158075334729246
0.004804537780321738
0.00550955857278727
0.006270697337594115
0.007084579621708556
0.007946992421210913
0.008853008357035376
0.009797122738225847
0.010773368606843163
0.011775363927640265
0.012796163702392796
0.013828443830367479
0.014864990867769639
0.015899880239145438
0.016929620455554604
0.017952921812312634
0.01896969204907151
0.019979915726941494
0.020982994636322222
0.02197894915362874
0.02296896056595874
0.023956081116302933
0.024945054162031553
0.025942066307751577
0.02695452491178977
0.02799090581927985
0.029060633894090786
0.03017397509626546
0.031341925468354695
0.03257608703026389
0.03388851406037286
0.03529137381206113
0.03679410150650913
0.0383617376584744
0.03926733830044906
0.0015940543387602817
0.0017649908959270436
0.0021100018384897314
0.002522591867994759
0.002997222117756176
0.0035346874344542025
0.004135296354048591
0.004798348913064438
0.005522091364469737
0.006303735030786298
0.007139510750468385
0.008024754644964919
0.00895401815271506
0.00992118887948141
0.010919605565560268
0.01194214918827176
0.012981400265718932
0.014029909660458566
0.015080732655125755
0.01612805574054615
0.01716762725157094
0.018196803219407927
0.019214144664533805
0.02021892061812268
0.021210997908217434
0.022190946219772814
0.023160518092389656
0.024122903795887416
0.02508286900584691
0.026046675588569983
0.027021951558393306
0.028017558026721956
0.02904347048912391
0.030110668084003096
0.0312310223351657
0.03241717672648481
0.03368240143201407
0.03504027256917529
0.03650186530751948
0.03803458478890692
0.03892321584974322
0.0015166454962589923
0.001687814325837409
0.0020356589003321206
0.0024548491660851893
0.002939767949340753
0.003490992437121316
0.00410855911684459
0.0047914504694579405
0.005537549188093888
0.006343652675893917
0.007205520708127605
0.00811795373000559
0.009074897983917708
0.010069571898281865
0.01109460981310658
0.012142239773007036
0.013204517354142003
0.014273659803417766
0.01534245307611182
0.016404661702488964
0.017455317145673242
0.018490794522207712
0.019508712714984316
0.020507786069776518
0.021487734417667537
0.022449368879696535
0.0233947400535797
0.024327322657707692
0.02525210490876248
0.026175598762542385
0.02710577837862683
0.02805199079694883
0.02902485885577827
0.030036183332247404
0.031098842485951204
0.032226683544626725
0.03343439139036547
0.034737181746807115
0.03614803848055674
0.03763722512000959
0.03850446521593775
0.0014263296737229466
0.0015978485116335257
0.001949153673961175
0.002376194240026866
0.002873238440531968
0.003440603065525627
0.004078012017736146
0.004784089199653017
0.005556308367819461
0.006390999862107449
0.007283389924211859
0.008227673294603584
0.00921711978919503
0.010244215046064074
0.01130083902957345
0.012378488864156274
0.013468556934248557
0.01456265922675187
0.015652990718060915
0.01673265381166114
0.017795904332984565
0.018838284355564935
0.019856656191582844
0.020849185901515712
0.021815342129831935
0.02275593162880338
0.023673182138754054
0.02457082633165984
0.025454164569259852
0.02633007964541964
0.02720701088243429
0.028094899036237984
0.0290051171865006
0.02995039540947466
0.030944740796596232
0.03200334950182668
0.033142495922566434
0.034379247559745994
0.03572877137420384
0.03716472497200316
0.038005515344329846
0.0013232236674641782
0.0014951923467766747
0.0018505701444819535
0.0022867119768289206
0.0027977297589826754
0.003383638460354343
0.004043816876089161
0.00477650177882956
0.005578727064321555
0.006446317017042407
0.007373913408973294
0.00835504111831786
0.009382216995071394
0.010447105549039857
0.011540723926895617
0.012653697470970154
0.013776561356161662
0.014900095001692443
0.016015662139116645
0.01711552253861326
0.018193083428477773
0.019243075059272072
0.020261655656691215
0.021246469572284862
0.022196684427489493
0.023113029772390558
0.0239978396479551
0.024855094934381153
0.025690451113427003
0.026511244795372292
0.02732647683187415
0.02814677830139324
0.028984366180885648
0.029852994424001265
0.03076790174809579
0.031745753064519225
0.03280455971546377
0.03396342988677
0.03523997362651332
0.03661181017278588
0.03742037445281675
0.0012078351564663815
0.0013802913501767594
0.0017402597205057552
0.0021866733309688522
0.002713443859745304
0.0033202478775569873
0.004006099640663311
0.004768838134616792
0.005605045415504729
0.0065100170223354355
0.007477769331022912
0.008501093087473575
0.009571661501282303
0.010680198033572959
0.0118167048630421
0.012970747646641582
0.014131785386338183
0.015289526117640216
0.01643428284273214
0.017557301783585916
0.018651040028460932
0.01970937989378185
0.020727780398519524
0.02170337595974413
0.022635037852573484
0.023523411694987676
0.024370940646708607
0.025181877088362777
0.025962283736187922
0.02672002370072306
0.02746474175167537
0.028207840589088977
0.028962456830457714
0.029743439700375865
0.030567332631199092
0.031452353861429354
0.03241836074189381
0.03348665303661947
0.03467751243286548
0.03597310393167361
0.03674289188107769
0.0010812102621553
0.0012540635863626907
0.0016189271931460387
0.002076579041243642
0.002620689775336521
0.003250571237125143
0.003964873879718247
0.004761053627888204
0.005635254079988095
0.006582239640843416
0.007595371017213007
0.008666637725606512
0.009786759984706366
0.0109453666807274
0.012131248905574704
0.013332680576269042
0.014537789445099567
0.015734954919925815
0.01691320496829987
0.018062584797556996
0.01917447501989387
0.020241845762816943
0.021259442895973278
0.022223911272120943
0.023133865034083295
0.023989917507460035
0.024794682411048874
0.02555275640188077
0.026270691165704543
0.02695696187197654
0.027621938260406088
0.02827786421190817
0.028938850239283782
0.029620881185327762
0.03034183811810537
0.031121529270495774
0.03198171376958259
0.03294597822216752
0.0340374528993776
0.0352434320788922
0.03596709741630543
0.0009450943081107374
0.001118033733071474
0.0014877154814690254
0.0019571926272726873
0.002519865263081806
0.0031746721131295555
0.0039199305027110476
0.004752763692918723
0.00566892481911017
0.006662671786201551
0.00772669299842743
0.008852105715483177
0.01002854466005223
0.011244349871691955
0.012486852229053335
0.013742743960083875
0.014998511513623905
0.01624090082206421
0.017457381689502765
0.018636579560594425
0.019768648708208138
0.02084556996223509
0.021861366030283973
0.022812236830020316
0.023696624309799706
0.024515220753243496
0.02527093662142052
0.02596884387152395
0.02661610986128858
0.02722193487962882
0.027797504642592466
0.028355966545415917
0.028912435991061403
0.029484035442387348
0.030089964768144874
0.030751596184627007
0.03149257591348974
0.032338797424177244
0.03331634290693624
0.0344181953988633
0.03508762035336795
0.0008020949796425391
0.0009744647384681741
0.001348279561068003
0.0018295541589082153
0.0024114113289952633
0.0030924366588071924
0.0038706875668101325
0.004743054581784879
0.005704996234548928
0.006750325952796015
0.0078710623145035
0.009057374582843704
0.01029764901562609
0.011578688402445646
0.012886042186555762
0.014204449255761347
0.015518362403992491
0.01681251447697425
0.018072482775602434
0.019285210719546458
0.020439453495302982
0.021526125517642908
0.022538540108514058
0.023472543639969774
0.024326556161525036
0.025101537279836533
0.025800899863047223
0.026430395076089
0.0269979912330183
0.027513766392310804
0.027989831206615724
0.028440294832660955
0.028881282635587976
0.029331009879968156
0.0298099108033005
0.03034081535091057
0.03094915185346501
0.031663045637570775
0.032511537520478646
0.03349380641093328
0.034100188620818865
0.0006558275448944077
0.0008264692197693495
0.001202835412008546
0.0016949644548518443
0.002295733433829075
0.003003434771798054
0.003815997295168666
0.004730246900307785
0.005741510492759428
0.00684327239124279
0.008026911367588195
0.009281567198817299
0.010594172967154971
0.011949670490891812
0.013331404910624092
0.014721673139283586
0.016102382711615664
0.017455765310032758
0.018765084935574383
0.020015284670323152
0.021193526956977085
0.02228959805126462
0.02329616482287129
0.024208888631659667
0.025026414524853074
0.025750263537655783
0.026384660778956636
0.026936333283321595
0.027414309309815185
0.02782974685368922
0.028195813483877903
0.02852763431255381
0.0288423189954189
0.029159074053673417
0.02949940175040397
0.02988737997077747
0.03035000057733926
0.030917427400668943
0.03162155487511416
0.032468181032635164
0.03300219835794726
0.0005110109394949116
0.0006780731536591543
0.0010541644396109043
0.001554931152378769
0.002173088570941055
0.0029067475194966643
0.0037539145312674898
0.00471161404424492
0.005775302392151601
0.0069383267969161415
0.008191495969620712
0.00952283178757896
0.010917551739058926
0.012358307043875557
0.013825671188851906
0.015298843245322737
0.016756503468474983
0.018177741121524617
0.019542968266372175
0.0208347397648685
0.02203841676528039
0.023142634719091202
0.024139563113349766
0.025024968103235887
0.02579810845794592
0.026461507650427447
0.027020650768511553
0.027483654714257136
0.027860955573015284
0.02816504967678169
0.028410316270145564
0.0286129411995097
0.028790953681415925
0.028964382566366707
0.02915553486846949
0.02938939759088179
0.029694150407340792
0.030101664953665893
0.030646449644480232
0.031341264395562535
0.03179334056585153
0.0003734614540391902
0.0005341908098169976
0.0009055541836197695
0.00141107298567546
0.0020434539767871735
0.0028007783868954235
0.003681436863165704
0.0046830659518926985
0.0058016527965818795
0.007030706610705768
0.00836059330351543
0.009778121881207826
0.011266453627573128
0.012805371404821632
0.014371904609447239
0.015941259548173492
0.01748796438027725
0.018987110011538213
0.020415559312233524
0.021753007820029126
0.022982806731242877
0.024092496835492076
0.025074042570673798
0.025923791375461032
0.026642210581682615
0.027233469822782675
0.027704941977185905
0.028066691859674982
0.028331011751867533
0.028512050022951166
0.02862556492982698
0.028688823510522824
0.02872065509889201
0.028741662438530224
0.0287745908830149
0.02884485792182505
0.028981257651626388
0.029216773224518655
0.029588222470679815
0.030115556129021354
0.03047620878546541
0.00024994215462491396
0.0004004643001474143
0.0007606445150410923
0.001265028627145728
0.001906419420326934
0.0026830529644120862
0.0035942317821312628
0.0046388263537465915
0.005813938900896323
0.007113687929724873
0.008528210146695296
0.010043007639127011
0.01163874379907674
0.013291550922804977
0.014973850914736818
0.016655619705784365
0.018305961099796805
0.0198948100664816
0.021394570870289318
0.02278151436408486
0.024036804981711922
0.025147091369884484
0.02610465867085833
0.02690719611031192
0.027557270789548866
0.02806161723036149
0.028430352519215076
0.02867621480618247
0.028813902497110234
0.028859568697675825
0.028830503700476837
0.028745020445808664
0.028622544906962557
0.028483905737899096
0.028351814622776018
0.028251533889275256
0.028211732157875254
0.02826557837897576
0.02845122053706022
0.028796638073349864
0.02905702951685347
0.0001505792647468948
0.0002828920955166103
0.0006233565827935168
0.0011184466811312774
0.0017610094020040152
0.0025499986026687447
0.003486407263158361
0.004571180371434403
0.005803359702813452
0.007178332020252841
0.008686360914374889
0.010311574038151184
0.012031573874981586
0.013817781568151275
0.015636534588439624
0.017450845281178053
0.019222618688715498
0.020915049205351848
0.022494890784842052
0.02393432809517651
0.025212258861590398
0.026314904423889902
0.027235773143987015
0.027975085131726873
0.028538818952623585
0.028937556640862793
0.029185292507773308
0.02929834014434819
0.02929443361688485
0.029192079882426662
0.029010186878114727
0.028767967806465174
0.028485108106863458
0.028182175055730778
0.02788125064315713
0.027606769069951444
0.02738655575245328
0.0272529638035337
0.027243945379658376
0.02739361977704545
0.02754539582131002
7.778375431941984e-05
0.0001877881106842395
0.0004978003343668264
0.000972655314335069
0.0016056514224603883
0.0023972372861312177
0.0033509752294604246
0.0044710272606429844
0.005759533042628842
0.007214134542561782
0.008825817088789715
0.010577343795213861
0.012442548254398006
0.014386690069559541
0.01636794079361514
0.01833988362440531
0.02025471736656889
0.022066715415431048
0.02373544181641077
0.025228291263641504
0.02652206928396339
0.02760352221904352
0.02846890484981505
0.029122804869555055
0.02957650549720796
0.029846171915518978
0.029951103320988562
0.02991222805692579
0.029750947369814394
0.029488372021185462
0.02914494933192831
0.028740450902231953
0.02829427966462208
0.02782605664072871
0.027356457126612735
0.026908280030522962
0.026507728817676247
0.026185935087985043
0.025979643876571958
0.02592774128260441
0.025963023645567216
0.0014801306126158054
0.002271282340478366
0.004397584604728758
0.009020518611325863
0.010916218485790522
0.015069667682084077
0.01723182451501748
0.02143930602855859
0.02336883127369464
0.026642656958931366
0.027926596624034433
0.02895685449041955
0.02973495232666869
0.03027229454445803
0.030587579287162162
0.03070415847380331
0.02803628382778178
0.02741668033516333
0.025130987871003405
0.024744384095906603
0.024429607869398417
3.820203678557873e-05
0.00013053654536593568
0.000408898796656174
0.0008601771468849835
0.0032409316936103188
0.005747489694926739
0.007291199199095861
0.012946943792528373
0.01937494662962779
0.025115513945032853
0.030647669404583196
0.03044413933805925
0.030118651980239
0.029694577100022695
0.029193309929478193
0.028634441818112002
0.02679407469204862
0.026188817612886432
0.02562474530300827
0.02450568101780013
2.6373784794333482e-05
9.758389164200074e-05
0.0003413429030405075
0.0007634469658095529
0.001359299670462163
0.002133081088228851
0.0030947758072826215
0.004256438289344201
0.005628014047244013
0.007213236777982517
0.009005827371205378
0.01098651017452683
0.013121415875429728
0.015362381991004998
0.01764940030291767
0.019915045517038807
0.022090262431931212
0.024110544764758515
0.02592144271653323
0.02748252318636437
0.028769304387583627
0.029773144099081182
0.03049944131754329
0.030964730056937218
0.031193294522807072
0.031213852086262976
0.031056695518420597
0.030751511159650264
0.030325938221730398
0.02980482596264729
0.029210085387395703
0.028561014212557988
0.027874984497197778
0.027168410784791062
0.02645795378192041
0.0257619461391778
0.025102080393130492
0.02450532805269976
0.024006264793455738
0.02364690249668712
0.023501803701661484
2.826837975276046e-05
7.91119709583919e-05
0.00029027620650199824
0.000684141969192136
0.0012565032374709665
0.0020130147776222167
0.0029667263308953773
0.004133580045746786
0.0055276452221883045
0.007156236815380814
0.009015282050829233
0.011085513148976295
0.013330250161658772
0.015695493637797722
0.018112739419076575
0.020504376943099138
0.022790891091234736
0.024898585792187924
0.026766394941216583
0.028350611158349123
0.0296269325482062
0.03058987400404151
0.03125010098836329
0.03163050884283074
0.03176189059731556
0.031678880660564346
0.03141662320383467
0.031008371626133298
0.030484031442865194
0.029869535135750473
0.029186881212185184
0.02845466614151464
0.027688966771421925
0.026904475346228977
0.026115834503552857
0.025339173155237683
0.024593823974459347
0.023904445075147673
0.023302520729148405
0.022835959120343273
0.022632611037362967
4.018018615021117e-05
7.030968492568519e-05
0.00024716192767872217
0.0006101063594286711
0.0011557790195136847
0.0018914865431571611
0.0028337130028043083
0.004002916077807685
0.005418035586115296
0.007090762881834095
0.009019899381124566
0.011186517329275034
0.013550915305853182
0.016052381837413896