# vtk DataFile Version 2.0
time_10.vtk
ASCII
DATASET UNSTRUCTURED_GRID
POINTS   4141  float 
6.39486361081947e-05          5.877959373401047e-18         0.0                           
0.2500000000000006            6.109856676900323e-05         0.0                           
0.5000594305146183            -1.2761388556902208e-17       0.0                           
0.75                          5.554208610355128e-05         0.0                           
1.0000532997704623            -1.7526118277163237e-19       0.0                           
1.25                          4.817750322301862e-05         0.0                           
1.5000452867460767            -5.508072049520013e-17        0.0                           
1.75                          3.883390659117699e-05         0.0                           
2.000035273001174             -5.172965248238543e-17        0.0                           
2.25                          2.7500270740783048e-05        0.0                           
2.500023302076769             1.6332005206593572e-18        0.0                           
2.75                          1.4338407334490645e-05        0.0                           
3.0000096148993145            2.0738711601950524e-17        0.0                           
3.25                          -2.502895002941385e-17        0.0                           
3.4999942526515078            7.23538806660021e-17          0.0                           
3.7499999999999996            -1.721843546637541e-05        0.0                           
3.999976927985738             -2.2654974996602595e-17       0.0                           
4.25                          -3.508030450847077e-05        0.0                           
4.499958768119078             -9.741766910466276e-17        0.0                           
4.75                          -5.3815203975254695e-05       0.0                           
4.999939756718655             -3.437472973261777e-17        0.0                           
5.25                          -7.337382045169437e-05        0.0                           
5.499919917969835             -3.508817693458844e-17        0.0                           
5.750000000000001             -9.381260993992501e-05        0.0                           
5.999899148091717             3.674132013397151e-17         0.0                           
6.249999999999999             -0.00011533420452164675       0.0                           
6.499877195676517             1.0382033727829169e-15        0.0                           
6.75                          6.37186483316699e-05          0.0                           
7.000062372338875             3.9677071601672635e-06        0.0                           
7.250004387273303             5.920735497629515e-05         0.0                           
7.500057360584665             5.290809691854378e-06         0.0                           
7.750005770365702             5.3079192565368786e-05        0.0                           
8.00005062601537              6.7722421859742244e-06        0.0                           
8.250007289023472             4.5062571089774906e-05        0.0                           
8.5000419453787               8.34008644525182e-06          0.0                           
8.750008868756492             3.503763303729125e-05         0.0                           
9.000031251960046             9.918915453621283e-06         0.0                           
9.25001043531526              2.304333737831494e-05         0.0                           
9.500018636293362             1.1438480116418576e-05        0.0                           
9.750011920047774             9.263461143406283e-06         0.0                           
10.000004295047626            1.2831388214229387e-05        0.0                           
1.33775127231762e-05          0.2999937359953054            0.0                           
0.24998816613194394           0.3000143173496743            0.0                           
0.5000147174788131            0.29997660560536754           0.0                           
0.7499706551075344            0.3000154967118964            0.0                           
1.0000158761729963            0.2999584474230164            0.0                           
1.249952199430141             0.3000166200075981            0.0                           
1.500016988073931             0.29993942956554603           0.0                           
1.74993290909901              0.3000177280938709            0.0                           
2.000018105278296             0.29991958767251026           0.0                           
2.249912777363563             0.3000188877989548            0.0                           
2.5000192987031276            0.2998988198912549            0.0                           
2.749891652099976             0.3000201731445505            0.0                           
3.000020641550491             0.2998768741519596            0.0                           
3.2498692339339748            0.300021651270673             0.0                           
3.5000071290042336            0.3000616898123526            0.0                           
3.750060197943416             0.3000087617002111            0.0                           
4.000009646763289             0.30005669531564955           0.0                           
4.2500546586889225            0.30001153354671856           0.0                           
4.5000125252827985            0.3000499629659883            0.0                           
4.750047288783429             0.300014578088116             0.0                           
5.000015627781442             0.30004126488645944           0.0                           
5.250037911947955             0.30001774548513177           0.0                           
5.500018802632974             0.300030530174443             0.0                           
5.750026508870591             0.3000208884158885            0.0                           
6.000021908209731             0.30001783331212145           0.0                           
6.250013190461929             0.30002388563514165           0.0                           
6.500024844130967             0.3000033003991046            0.0                           
6.7499980876220285            0.3000267723435227            0.0                           
7.000027710004842             0.2999871741143979            0.0                           
7.249981483699312             0.3000294209174662            0.0                           
7.500030219792551             0.2999697060836667            0.0                           
7.7499636474353775            0.30003175850581265           0.0                           
8.000032506578247             0.2999512320015593            0.0                           
8.249944885033548             0.3000339805937496            0.0                           
8.500034715902295             0.29993192334288216           0.0                           
8.749925307324782             0.300036209169672             0.0                           
9.000036978232355             0.29991178707570465           0.0                           
9.249904869735648             0.3000385894646324            0.0                           
9.500039442671715             0.2998906732243328            0.0                           
9.749883369578288             0.3000412698498118            0.0                           
10.000042252786034            0.2998682782103863            0.0                           
6.187673763689265e-05         0.6000106558341629            0.0                           
0.25001184636746604           0.6000590712525798            0.0                           
0.5000574208935334            0.6000144417999705            0.0                           
0.750015834876305             0.6000535540115126            0.0                           
1.000051314231972             0.6000187753481231            0.0                           
1.2500203064400357            0.6000461782209451            0.0                           
1.5000432704869788            0.6000234475973057            0.0                           
1.7500250404858495            0.6000367618284795            0.0                           
2.0000331611556383            0.6000282295473311            0.0                           
2.250029810447343             0.6000252803956333            0.0                           
2.5000210095658373            0.6000329121770103            0.0                           
2.750034423469613             0.6000118349062958            0.0                           
3.00000694322235              0.6000373625274835            0.0                           
3.2500387954174976            0.5999966124367265            0.0                           
3.4999912041263994            0.6000415648197975            0.0                           
3.750042875283012             0.5999799410382749            0.0                           
3.9999741025012763            0.6000453402261723            0.0                           
4.250046512270166             0.5999620682171466            0.0                           
4.499955893342461             0.6000487766810948            0.0                           
4.7500498828899405            0.5999432633068776            0.0                           
4.999936815874566             0.6000520796644998            0.0                           
5.250053186028242             0.5999236601382916            0.0                           
5.499916947191346             0.6000554567093779            0.0                           
5.750056638323183             0.599903223749014             0.0                           
5.999896196041677             0.600059136802441             0.0                           
6.2500604698486               0.5998817507476782            0.0                           
[...]
POINT_DATA  4141
SCALARS Con float 1
LOOKUP_TABLE default
0.000410196942929261
0.00046356612079799883
0.0005667435574068286
0.0006893759842596442
0.0008303055005340815
0.0009902827394610118
0.0011699163792953575
0.0013694981043242177
0.0015889694167242434
0.0018279105307892132
0.0020855421633482803
0.0023607383743551357
0.0026520477215381446
0.002957717806896723
0.003275714712332202
0.0036037227741176243
0.003939113030811713
0.004278920026153337
0.004620609229208916
0.004972095116063234
0.00539559962783311
0.0058225305484344335
0.006187592311907907
0.006534732820830215
0.006885971667566371
0.007239693232661881
0.00759589740840029
0.007955069042428767
0.008318407155232048
0.008687673964598606
0.009065116008305065
0.00945340016479146
0.00985556174911446
0.01027495728056941
0.0107152183598083
0.011180204017831848
0.011673945308047764
0.012200512404216202
0.012762838675778597
0.013346199940537774
0.01368377763336707
0.0004162838133503789
0.0004710055439373813
0.0005763674926613651
0.0007014295328136511
0.0008450349758001932
0.0010078910258121399
0.0011905601102952705
0.0013932839318124065
0.0016159531565352085
0.001858099218711242
0.0021188998556106245
0.002397197352460571
0.00269152876568956
0.0030001679253014116
0.003321181972763767
0.0036525194824310234
0.003992184457110527
0.004338815381941498
0.004693138992050075
0.005067579585184423
0.0054529248095248496
0.005835167588822283
0.006206621371465458
0.0065707348959048156
0.006928870171326928
0.0072861497480034825
0.007644118935816738
0.008004248433570197
0.008368195716837248
0.00873798845125254
0.009116043821826889
0.009505154184401805
0.009908456878642176
0.010329397425258109
0.010771688453740531
0.01123926432762875
0.011736226274098021
0.012266710541509334
0.01283368945571684
0.013422661359685204
0.013763891142489774
0.0004114874901481502
0.0004660827336291023
0.0005715028387535288
0.0006969173070997748
0.000841149936411348
0.0010049037491429613
0.0011887310363920525
0.001392862101026289
0.001617176948128397
0.0018612002516447425
0.0021241118745159546
0.002404773879033778
0.0027017768810364425
0.0030135125385604066
0.0033382891922665936
0.003674526924981067
0.004021140036114305
0.004378053415291062
0.004747869722186312
0.005118746835623567
0.005468028867400849
0.005819638920592233
0.006194327782890234
0.00656714889267058
0.0069334662583510785
0.007295186025521334
0.007655105208810462
0.00801543445536844
0.008378352152376452
0.008746203977359633
0.009121616232615504
0.00950753214881453
0.009907212380593161
0.010324215771302723
0.01076236867781276
0.011225725887150708
0.011718519418848536
0.012245026084462759
0.01280837728253767
0.0133940965177706
0.01373350031036384
0.0004031502596371924
0.00045767275787084074
0.0005632172234535339
0.0006892013356527248
0.0008344619808197967
0.0009996896439816256
0.001185418536691881
0.0013918572223471707
0.0016188630813234977
0.0018659402218247129
0.0021322539811331697
0.002416663491596304
0.002717775375940865
0.003034023334754618
0.003363778243838656
0.003705488953271337
0.004057753701686674
0.004419197101282461
0.004784733636921245
0.0051461746173298096
0.005503659990847577
0.0058607442099583434
0.0062219436298839555
0.006589215291099155
0.006955011701832776
0.00731728796111524
0.007676901058415991
0.008035693931200589
0.008395848131080939
0.008759834423382535
0.009130425094217333
0.009510711105215458
0.009904102666111367
0.010314315474165284
0.010745345622892437
0.011201434912116342
0.011687022208463222
0.012206611786439671
0.012763577880368549
0.013343817328032082
0.01368053565516324
0.00039140166710920196
0.0004458173931846976
0.0005515541798669308
0.0006783530141379675
0.0008250659164619333
0.0009923654601702876
0.001180757468224806
0.0013904157299648346
0.0016211583208201464
0.001872446792698652
0.0021434010836056416
0.0024328306430797665
0.00273928182907447
0.003061098289242027
0.003396481852524267
0.0037435065797218254
0.004100002963900987
0.004462831715202005
0.004827894096214301
0.005191907024429097
0.005553136118489324
0.005913216466123809
0.006274320451510755
0.006636104497907325
0.006997484229501119
0.0073564667172965345
0.007712815435817209
0.008067609801613392
0.00842271772557768
0.008780527185037778
0.009143850815873366
0.009515885710114457
0.009900190337489309
0.010300662120432116
0.01072151052587056
0.011167223025892618
0.011642517505216901
0.01215221152145521
0.01270003801446709
0.013272453733651308
0.013605341499781905
0.00037618003538117834
0.0004304710993888164
0.0005364741667842773
0.0006643407594483344
0.000812937977139801
0.000982912161008733
0.0011747295471941444
0.0013885147000567654
0.0016240276240728894
0.001880662073020854
0.002157457460022549
0.002453123549152325
0.0027660752525820046
0.0030944700187436306
0.003436229734807662
0.0037890190935971004
0.004150116208230592
0.00451640197385101
0.004884684569819012
0.005252242171915701
0.005617747640424246
0.005981024010374179
0.006342399649427284
0.006701980517567078
0.0070590799370811655
0.007413122052806178
0.007763971435323473
0.008112416138314088
0.008460067987337507
0.008809196265490508
0.009162609763025699
0.009523587914912627
0.009895836820411567
0.010283455677955534
0.0106909051365831
0.011122972308318367
0.01158472425097461
0.012081380411096113
0.012617147351566039
0.013179206174292676
0.013506984056522913
0.0003574497138663683
0.0004115998253200833
0.0005179500976540713
0.0006471448188461798
0.000798064850860587
0.0009713211395301046
0.0011673289482933607
0.0013861497233257196
0.001627467735501792
0.001890585770380572
0.0021744321802106446
0.0024775780738300127
0.0027982617653389504
0.003134414252929408
0.003483677099087748
0.003843403972019822
0.004210688321963306
0.004582477601349381
0.004955822833670338
0.005328278010092045
0.005698130285786358
0.006064448057961693
0.006426779861223567
0.0067847814115022595
0.007138146269291943
0.007486662415320709
0.007830559827286122
0.008170683307079924
0.008508589769183957
0.008846509083681441
0.009187274798180723
0.009534262498294714
0.009891342353044093
0.01026284128740872
0.010653509421413299
0.011068485692841377
0.011513254028017696
0.01199352106310601
0.012514069850424858
0.013062975802378952
0.013384227468361468
0.00033521730381086775
0.0003892090130211632
0.0004959864810340491
0.0006267708906535067
0.0007804534574062197
0.0009576001349323353
0.0011585649680019303
0.0013833348945800983
0.00163150463189591
0.0019022684441640692
0.0021944216728629292
0.0025063716376348168
0.0028361567706661444
0.0031814721043242774
0.00353970036087933
0.003907958541308795
0.004283179120727936
0.004662250879068918
0.005042227660885508
0.00542054378208422
0.005795182047832651
0.006164692860215685
0.0065281009325942035
0.00688477982837727
0.007234373162451663
0.007576857191824901
0.007912646331230939
0.008242728284979321
0.008568731532375421
0.008892942110855529
0.00921827811439928
0.009548250964078903
0.00988692733104528
0.010238895577629081
0.010609235610336241
0.01100348880651312
0.011427619798347066
0.011887901640659893
0.012389794897105276
0.012922458903652836
0.013235599237648327
0.0003095625926285848
0.0003633691737566659
0.0004706398115601608
0.0006032639071261891
0.0007601380666453134
0.0009417738175635937
0.0011484561368657659
0.0013800903019155167
0.0016361734246551623
0.0019157808432364268
0.0022175615291460627
0.002539743710911031
0.0028801520395310004
0.003236237862608721
0.003605126440383133
0.003983687989214162
0.004368641972351242
0.004756699375753944
0.005144730446479553
0.00552993169976308
0.00590994696669483
0.006282922843737571
0.006647499462505437
0.007002773552621593
0.007348282955792608
0.007684026510468613
0.008010525977811898
0.008328890583419174
0.008640868432347435
0.008948866173438876
0.009255944147591257
0.009565796202119907
0.009882724788255628
0.010211616881186715
0.01055792210797126
0.01092763130676298
0.011327247905029782
0.011763684989447225
0.01224317968037015
0.01275617565025538
0.013059419596364981
0.00028067287592341695
0.00033424608753744085
0.00044204056621070705
0.0005767214710304623
0.0007371848361885078
0.0009238793078925979
0.0011370167148767644
0.0013764194328678232
0.0016414861403841199
0.0019311705532411747
0.002243969087365201
0.002577920615452099
0.002930621875557617
0.003299262264443142
0.0036806820640963136
0.004071458208663423
0.004468019630928215
0.004866788364679607
0.005264334427813626
0.0056575232718103175
0.006043635211294823
0.006420442396106522
0.006786246218068327
0.007139891151462885
0.0074807742627997775
0.00780886624064362
0.008124742775656463
0.00842962035299651
0.008725383640379215
0.009014599223800516
0.00930051475992675
0.009587048912977807
0.009878777588632221
0.010180921122788178
0.01049933410150746
0.010840496725138388
0.011211500633721252
0.011619963727511447
0.012072991850970315
0.012562521771623847
0.0128538572368698
0.00024888142894327636
0.0003021337814224606
0.0004104161623087284
0.000547305980410227
0.0007116927449661211
0.0009039558371071517
0.0011242353501709557
0.001372277350267114
0.001647390101079974
0.0019484114059195399
0.002273685250587538
0.002621053094260541
0.002987865382208684
0.0033710182704374723
0.0037670193656400165
0.004172084203017361
0.0045822615808393
0.004993580929998023
0.0054022093168248535
0.0058046024075108305
0.0061976340590832015
0.006578695200932415
0.006945760866566998
0.007297431979632334
0.007632962306165357
0.007952278690434278
0.00825599918977388
0.00854544780865368
0.008822664065340255
0.009090405314345882
0.009352143077671324
0.00961205637960251
0.009875026099060935
0.010146633439514899
0.010433163846295819
0.010741615263443988
0.011079703693209946
0.011455802744334768
0.011877966875942296
0.012339838652280385
0.012617005928529134
0.00021470862103787594
0.0002674889876941809
0.0003761133015460099
0.0005152539964935973
0.0006837896229507402
0.0008820275385237029
0.0011100452636565198
0.0013675295339519108
0.0016537173922818386
0.0019673464228708473
0.002306615073161236
0.002669160898710268
0.0030520644661833434
0.0034518852276443635
0.0038647331502939543
0.004286376401725229
0.004712380946049119
0.005138273145579992
0.005559712455344506
0.005972659328589292
0.006373524630778569
0.006759290985337699
0.007127602369962571
0.007476824004610685
0.0078060779351424294
0.00811526097128976
0.008405050406526886
0.008676901331892339
0.008933038400050462
0.009176444560090528
0.009410849895786123
0.00964072428914746
0.00987127729974647
0.010108467850111475
0.010359024495200906
0.01063047479617515
0.01093117658397581
0.011270290189495826
0.011656879747034355
0.01208650450469573
0.012346985738526856
0.00017890248393691364
0.00023096424067166124
0.0003396172804944482
0.00048088085095066626
0.0006536216954372153
0.0008580781270682738
0.0010942850266925871
0.001361900627747364
0.0016601245221617115
0.0019876226094354995
0.0023424633396502137
0.0027220762144801614
0.0031232430848489295
0.003542130424806981
0.003974366995193419
0.004415166351884642
0.004859488186916504
0.00530222728424494
0.00573841496652427
0.006163416434383991
0.006573108552638616
0.006964026606106487
0.007333473777434385
0.007679592734713992
0.008001403044875427
0.008298810873347238
0.008572598538205094
0.008824401243251399
0.009056678053814448
0.00927268324935454
0.009476443881499506
0.009672748411692102
0.009867150461803389
0.010065990114322545
0.010276433290387924
0.010506527194002325
0.010765264258361185
0.011062596001294616
0.011408631215670022
0.01180104724363258
0.012042070013982982
0.0001424738346934676
0.00019343504063862335
0.00030156479254927316
0.00044457799340534034
0.0006213350571854428
0.0008320166636386765
0.0010766495144023103
0.0013549126002862005
0.0016660212913442284
0.0020086156614751807
0.0023806617344416764
0.0027793808485607877
0.0032012217139683833
0.003641886187751743
0.00409641452169558
0.004559329084847489
0.005024828367142881
0.005487016529373524
0.005940149169197357
0.0063788741814737576
0.006798448192182886
0.0071949133928141465
0.007565225921500283
0.007907333644988992
0.008220207218854317
0.008503832623376213
0.008759175934037
0.008988131864702664
0.009193467231645214
0.0093787693695701
0.009548407818117534
0.009707516062818297
0.009861997984228339
0.010018561854471685
0.010184782400969034
0.010369188642439346
0.010581368818774481
0.0108320368770142
0.011132347442123451
0.011482278775513022
0.011700838726642826
0.00010671752806501668
0.00015601418121640007
0.0002627453646438512
0.0004068004203999429
0.0005870484448952801
0.0008036350864817521
0.0010566322925647856
0.0013458134829573624
0.001670489438272049
0.0020293443747506504
0.0024202866753877464
0.0028403360910946585
0.003285567483037098
0.003751126500147706
0.004231325246800763
0.00471981678185622
0.005209837318650301
0.005694495917008796
0.006167085150341439
0.006621383951561662
0.007051925970928462
0.0074542128773866225
0.007824860686042674
0.008161676575253626
0.008463672077993542
0.008731024948179147
0.008965005528071791
0.009167884813348572
0.009342840279432855
0.009493873627052118
0.009625751491167539
0.00974397749406673
0.009854800946512069
0.009965265301302489
0.010083297142991367
0.01021783388499375
0.01037898167204824
0.01057814662347731
0.010827491507441597
0.01112944898047241
0.011322356354363256
7.320805652725915e-05
0.00012004343582549572
0.00022408561106786082
0.0003680426884949493
0.0005508190786210757
0.0007725614911143642
0.0010334639475515133
0.001333500585174962
0.0016721943104925346
0.002048377316857519
0.0024599699520890758
0.002903807737527579
0.00337554401686992
0.0038696502193412345
0.0043795258698607785
0.00489771765837579
0.005416232154539474
0.0059269135941635576
0.006421848650276071
0.006893756839495549
0.007336328747499609
0.007744483588738128
0.00811453081292432
0.008444234300883303
0.00873279005494826
0.008980736941691986
0.009189824677399651
0.009362863867348376
0.009503580631838104
0.009616494325932338
0.009706832062517655
0.009780489228488034
0.009844041362103923
0.00990480988708689
0.00997098241622101
0.01005178735472248
0.010157717760610257
0.01030075487060535
0.010493982961210391
0.010742414687905103
0.010906372952379005
4.375204231704662e-05
8.70497534001328e-05
0.0001866111082518658
0.00032880440712939967
0.0005126092441071268
0.000738218256078454
0.0010060538913017746
0.0013164459260079139
0.001669297297788653
0.00206373884365015
0.0024978083712824885
0.002968192258033098
0.003470068061374646
0.003997080407087007
0.0045414699484843425
0.0050943563448632365
0.005646154266414116
0.006187080555841859
0.00670769598150935
0.007199420059791527
0.007654963586511158
0.008068639072391881
0.008436530288548912
0.008756523697970423
0.00902822249590427
0.00925277553926699
0.00943265820197271
0.009571440977358462
0.00967357612246765
0.009744225542571235
0.00978914517006567
0.009814634720898956
0.009827556445954816
0.009835423391745396
0.009846556353904683
0.009870309022997207
0.00991736424527046
0.010000072967144717
0.01013233383780594
0.010321813630257911
0.010453523489506995
2.0281746083106412e-05
5.8650843483079426e-05
0.0001513801621069647
0.0002895619432628934
0.0004722693378181078
0.0006997913917249733
0.0009729462982475442
0.0012926383009857249
0.001659384209484957
0.0020728282331457432
0.0025312838396776504
0.0030313537499558497
0.0035676825158617058
0.004132891746013062
0.0047177318290149975
0.00531145597145738
0.005902388165335985
0.006478622417368534
0.007028766365587462
0.007542634874798351
0.008011810244201827
0.008430013141812485
0.008793263022008679
0.009099841262341573
0.009350096284848551
0.009546144632726666
0.009691524640538131
0.00979085359807058
0.00984952787493167
0.009873492711112817
0.009869096582147234
0.009843035838292397
0.00980238916956043
0.009754738274200642
0.00970837015181111
0.009672558338555636
0.009657921253062087
0.009676865223108677
0.009743770289972706
0.009869251079322341
0.009965586801726172
4.632719376391718e-06
3.640222458863354e-05
0.0001194422783229819
0.00025076688452887384
0.000429514244751609
0.0006562156873947742
0.0009323127632667839
0.0012595709992186388
0.0016394385000869363
0.0020723763637924848
0.0025572127759111297
0.003090586064003442
0.0036665585663423887
0.004276480550237279
0.0049091644448591
0.0055513876369105925
0.006188686116885863
0.006806343242394515
0.007390436168555259
0.007928789789171836
0.008411710226621698
0.00883241835929537
0.009187164685851021
0.009475061505900245
0.00969770660055348
0.009858687940687682
0.009963056044664657
0.010016834089310995
0.010026614177894966
0.009999266869420683
0.009941773664189265
0.00986118051960599
0.009764664379915342
0.0096597023437973
0.009554334743038023
0.009457514437453666
0.00937954032028268
0.009332534627522255
0.009330844491553775
0.009387385397919336
0.009445363581063645
7.145166416816836e-07
2.166643503337138e-05
9.177097937202494e-05
0.00021274628222422645
0.0003839556136587861
0.0006063155692428222
0.0008821533732607975
0.0012144646240912992
0.001606055886241902
0.00205863767268268
0.0025719173583928535
0.003142783115462233
0.0037646977826090223
0.0044274341624301735
0.005117260261221072
0.005817622288493825
0.006510277692103684
0.007176729845760178
0.007799738131501793
0.008364657949427026
0.008860407095530331
0.009279948175078904
0.00962028234767543
0.009882040714150437
0.010068810005621294
0.010186342186469416
0.010241776071684082
0.010242963862934733
0.010197955066719524
0.010114657321590184
0.01000066981259903
0.00986327250789458
0.009709550076554843
0.009546631683802282
0.00938203320956748
0.009224095559482056
0.009082512845530431
0.008968959811368705
0.008897427390675585
0.008882684753183889
0.008899296049532632
0.00034557319319648166
0.0005626578498208899
0.0011746688690442062
0.0025982543174092113
0.0032116640743770257
0.004608477142281147
0.005362467881201168
0.006879067444703683
0.007595681321900993
0.00884250283952528
0.00934355765674173
0.009752461698623668
0.010067871284511356
0.010292863542732086
0.01043384112108336
0.010499365351058105
0.009631761595459547
0.009415433279572193
0.008608846439983185
0.008472996232028077
0.008368937987798121
1.0784973369181727e-06
1.528835600133995e-05
7.248928172715794e-05
0.0001826941892595471
0.000837490854017798
0.0015787400847977102
0.002052999974624773
0.003885851622733916
0.006126986418301074
0.00825586045662738
0.010499092890132759
0.010442922590580515
0.010340397290128228
0.010200358405674653
0.010030824703383472
0.009839055585578916
0.009196772018840066
0.008983219327305173
0.008783596636408953
0.008391851020241368
7.108397897501157e-06
1.4802461973274585e-05
5.9689992941874736e-05
0.0001588922825673522
0.0003118734301739106
0.0005204967077757361
0.000789107660347706
0.0011234908166526717
0.0015296016090078372
0.0020121724934793403
0.002573224636889628
0.0032106216484525585
0.003916885872974782
0.004678558319605084
0.0054763682058114795
0.00628635955843734
0.007081910399290277
0.00783633285202454
0.008525560453559546
0.009130393005755069
0.009637902675345507
0.01004184358087016
0.010342155872215852
0.01054382647910944
0.010655433297181844
0.010687668375759112
0.010652052443235313
0.010559954579980988
0.010421948421042387
0.01024748022613247
0.010044796063303815
0.009821069589358685
0.00958267914875679
0.009335598067321402
0.009085879388322842
0.008840231152607195
0.00860669913510537
0.008395456709851572
0.008219752829039875
0.008095928352734792
0.008048533915522616
1.5594610619059426e-05
1.648486761759633e-05
5.027544318946811e-05
0.0001392389230129262
0.00028286300984528947
0.00048332671128592384
0.0007458533027696291
0.0010775016685738929
0.0014857561276751942
0.0019769289881798814
0.00255440491623368
0.0032168642416371142
0.003956756468993624
0.004759392381412394
0.005603028413641456
0.00646017698042873
0.007300091429316749
0.008092025010584019
0.008808596562216974
0.009428544504151124
0.009938346586131418
0.010332530119155315
0.010612841482902195
0.010786663222604584
0.01086512468109595
0.010861282501630005
0.010788615723024952
0.010659944421925263
0.01048677638472208
0.010279024094722616
0.010045009533005049
0.009791676219170257
0.009524944341233384
0.00925016678619334
0.008972665398126557
0.00869834928962682
0.008434414826074894
0.008190209491670639
0.007977927534882141