# vtk DataFile Version 2.0
time_10.vtk
ASCII
DATASET UNSTRUCTURED_GRID
POINTS   4141  float 
8.453639932248698e-06         2.0319414819736775e-17        0.0                           
0.2500000000000001            7.990053738707496e-06         0.0                           
0.5000077332468849            -6.171764055676778e-18        0.0                           
0.7500000000000001            7.161450767031796e-06         0.0                           
1.0000068437507805            -3.411876506012083e-17        0.0                           
1.2499999999999998            6.139601963028131e-06         0.0                           
1.500005751798517             -2.4534945698086978e-17       0.0                           
1.75                          4.903159083134194e-06         0.0                           
2.0000044424117185            -2.7595568054343577e-18       0.0                           
2.25                          3.450022414185288e-06         0.0                           
2.500002919851491             1.0013997625199624e-16        0.0                           
2.75                          1.7972467405271942e-06        0.0                           
3.000001208542059             5.62700718913659e-17          0.0                           
3.25                          -1.6215217970690995e-17       0.0                           
3.4999993243292433            5.590791593060147e-17         0.0                           
3.75                          -2.040364025122799e-06        0.0                           
3.999997262942646             2.0202869010434928e-16        0.0                           
4.25                          -4.161173118453061e-06        0.0                           
4.499995112375547             5.601880059779957e-17         0.0                           
4.75                          -6.366939689874594e-06        0.0                           
4.999992880765201             -1.9924259914420852e-16       0.0                           
5.25                          -8.649045900122726e-06        0.0                           
5.4999905728395815            -1.2086488293172532e-16       0.0                           
5.75                          -1.1012954244174378e-05       0.0                           
5.9999881774431785            -1.1894724344618703e-16       0.0                           
6.25                          -1.3481570406541655e-05       0.0                           
6.499985665880446             -3.1435610115313494e-16       0.0                           
6.75                          8.430793135627307e-06         0.0                           
7.0000082070566965            6.462821738221042e-07         0.0                           
7.250000688799084             7.711236949374871e-06         0.0                           
7.5000074357018525            7.817561591307946e-07         0.0                           
7.750000831666502             6.8220669936867365e-06        0.0                           
8.000006481668914             9.367939869065356e-07         0.0                           
8.250000991333058             5.729709228950177e-06         0.0                           
8.50000531727077              1.1026217908757926e-06        0.0                           
8.750001158685363             4.419088044501468e-06         0.0                           
9.000003933884358             1.2700249379112896e-06        0.0                           
9.250001324701556             2.8942249558667546e-06        0.0                           
9.500002341549175             1.4307034969236455e-06        0.0                           
9.750001481510823             1.1758735905165818e-06        0.0                           
10.000000563737547            1.5776197484810904e-06        0.0                           
1.6305766859853055e-06        0.29999927977898083           0.0                           
0.24999861046128044           0.3000017241746896            0.0                           
0.5000017653362873            0.2999972304192536            0.0                           
0.7499965233279526            0.3000018444333263            0.0                           
1.000001882531052             0.2999950792964814            0.0                           
1.2499943436012406            0.3000019566382062            0.0                           
1.5000019931160564            0.299992846829944             0.0                           
1.7499920860017406            0.3000020663191259            0.0                           
2.000002103664999             0.2999905385293751            0.0                           
2.249989750853451             0.30000218147778107           0.0                           
2.50000222260526              0.29998814336009333           0.0                           
2.7499873211807455            0.3000023108985572            0.0                           
3.000002358652587             0.2999856325397873            0.0                           
3.249984762584402             0.3000024626332364            0.0                           
3.5000012115466035            0.3000081394277762            0.0                           
3.75000790103449              0.3000013760170698            0.0                           
4.0000014666895645            0.30000737019643564           0.0                           
4.250007074565047             0.3000016624280925            0.0                           
4.5000017662835               0.30000641647244947           0.0                           
4.750006052143579             0.3000019826186963            0.0                           
5.0000020936996865            0.30000525008142087           0.0                           
5.250004811944282             0.3000023182138713            0.0                           
5.500002430318043             0.300003862189859             0.0                           
5.750003351497352             0.30000265117860775           0.0                           
6.000002758874392             0.3000022620217702            0.0                           
6.250001684877595             0.3000029667806996            0.0                           
6.500003066759689             0.30000046872858277           0.0                           
6.749999833139511             0.3000032630805386            0.0                           
7.000003357250602             0.29999851289369206           0.0                           
7.249997830059445             0.30000353045897116           0.0                           
7.500003611355639             0.29999642622082884           0.0                           
7.749995708002451             0.30000376595008954           0.0                           
8.000003840539229             0.29999424350339365           0.0                           
8.249993498370555             0.3000039867186766            0.0                           
8.500004059418927             0.29999198366784446           0.0                           
8.749991213986043             0.3000042071095752            0.0                           
9.00000428340604              0.2999896479864078            0.0                           
9.249988850185932             0.3000044442349624            0.0                           
9.500004530079265             0.2999872195698691            0.0                           
9.749986383941188             0.30000471569889503           0.0                           
10.000004816560187            0.2999846635788606            0.0                           
8.247793579428466e-06         0.6000018127242958            0.0                           
0.2500019318968641            0.6000077896624466            0.0                           
0.5000075350317507            0.6000021965410789            0.0                           
0.7500023406093496            0.6000069659094388            0.0                           
1.0000066485482868            0.600002647836377             0.0                           
1.2500028089996698            0.6000059428289515            0.0                           
1.5000055530608614            0.6000031411594001            0.0                           
1.750003310033373             0.6000046980652045            0.0                           
2.0000042329037333            0.6000036482653293            0.0                           
2.250003815740099             0.600003229039795             0.0                           
2.5000026915902147            0.600004143328742             0.0                           
2.7500043021811322            0.6000015496660043            0.0                           
3.000000947031994             0.6000046085145482            0.0                           
3.2500047560242025            0.5999996853303121            0.0                           
3.4999990294863017            0.6000050378845688            0.0                           
3.7500051705492465            0.5999976733570579            0.0                           
3.9999969752624347            0.6000054193928148            0.0                           
4.250005537089444             0.5999955452159412            0.0                           
4.499994815449222             0.6000057629711302            0.0                           
4.750005872680611             0.5999933302312547            0.0                           
4.9999925756361945            0.6000060898194951            0.0                           
5.250006199086698             0.5999910429141573            0.0                           
5.499990264260157             0.6000064239185301            0.0                           
5.750006541509991             0.5999886792473113            0.0                           
5.99998787092225              0.600006792083274             0.0                           
6.250006926993223             0.5999862159947157            0.0                           
[...]
POINT_DATA  4141
SCALARS Con float 1
LOOKUP_TABLE default
1.174141002848305e-05
1.257553661410592e-05
1.4225339601597466e-05
1.614850427490058e-05
1.8315731785293816e-05
2.0732225455020353e-05
2.340185749647007e-05
2.6324304127613915e-05
2.9494621612475346e-05
3.290316791656644e-05
3.6535712450164905e-05
4.0373715884685714e-05
4.439475152483922e-05
4.857302099147662e-05
5.2879879871926545e-05
5.728423228539941e-05
6.175272825758411e-05
6.624949738023353e-05
7.074463595216013e-05
7.527762739954313e-05
8.034345539286906e-05
8.5417083331441e-05
8.998612935953281e-05
9.4328824978024e-05
9.866395980944803e-05
0.00010297877054229504
0.00010727966788041403
0.0001115785358813544
0.00011589530582698461
0.00012025648941001334
0.00012469440732102916
0.00012924653362310408
0.0001339549255039872
0.00013886571272203187
0.0001440285829043452
0.00014949625096409992
0.00015532381335671793
0.00016156703528063276
0.00016826700783414823
0.00017524266362376834
0.00017925999332143975
1.1913714382233513e-05
1.2766926201928442e-05
1.4449669977913756e-05
1.640825792598388e-05
1.8613466087918328e-05
2.106981818192935e-05
2.3780511340188117e-05
2.6744508646644156e-05
2.9956150046048204e-05
3.340510402948971e-05
3.7076515284626026e-05
4.0951335375767124e-05
4.500682137763912e-05
4.921719182863338e-05
5.3554440064469446e-05
5.798942709085891e-05
6.249356062969948e-05
6.70441814522864e-05
7.163331581245449e-05
7.637210214843754e-05
8.115776273668984e-05
8.58590543962326e-05
9.042064181694625e-05
9.490223682064576e-05
9.928621329558588e-05
0.0001036230452333523
0.00010793123765069567
0.00011223136598717282
0.00011654746079126133
0.00012090853846865664
0.000125348616816064
0.0001299064747411093
0.00013462526748182638
0.00013955209857547483
0.00014473755152664736
0.00015023517514377524
0.00015610084468183346
0.00016239106211946299
0.00016914737580934287
0.00017619173255265682
0.00018025330457486512
1.181543502394163e-05
1.2668443617931748e-05
1.4354990057148195e-05
1.6322318070539597e-05
1.8540520694967048e-05
2.101385686535739e-05
2.3745163859083746e-05
2.6733019568863318e-05
2.9971370718098477e-05
3.3449514628497644e-05
3.7152292384701844e-05
4.1060494090448e-05
4.515149485818073e-05
4.940016089262378e-05
5.378015899594641e-05
5.8265925635036534e-05
6.283631437576551e-05
6.74788114432961e-05
7.220880570170916e-05
7.690261585555311e-05
8.139090330997797e-05
8.586459953307582e-05
9.046519839135221e-05
9.499873247512899e-05
9.943966244137696e-05
0.00010380169374064759
0.00010811382303830076
0.0001124022130379179
0.00011669511937228179
0.00012102419713544203
0.00012542528388067084
0.00012993853613967466
0.00013460830484928352
0.00013948283974604003
0.00014461391867107452
0.00015005639531634588
0.000155867598191114
0.00016210565279553755
0.0001688141296641749
0.0001758159258021772
0.00017985453040646692
1.1645249834399914e-05
1.2499770298308697e-05
1.4193438885831934e-05
1.6175274872991952e-05
1.841513511074203e-05
2.091674063478644e-05
2.368232593675813e-05
2.6709803245913998e-05
2.999242293479912e-05
3.3518785529025534e-05
3.727307419262299e-05
4.1235513073335615e-05
4.538306871163703e-05
4.969042502768195e-05
5.413125272130221e-05
5.867978345766499e-05
6.331174066870827e-05
6.800443484128659e-05
7.270196753442176e-05
7.733365212897785e-05
8.189285283475606e-05
8.640226717882353e-05
9.089440412605639e-05
9.538089458931522e-05
9.980445169899657e-05
0.00010415512843790486
0.00010844568900810625
0.00011269972207234651
0.00011694568205856029
0.00012121646187090884
0.00012554933158839934
0.00012998593925831164
0.00013457218260092203
0.0001393579810853027
0.0001443969567187885
0.00014974604109081003
0.0001554649258927503
0.00016161443952921964
0.00016824120339103277
0.00017517314623528203
0.00017917771482469876
1.1404600749941205e-05
1.226134174622119e-05
1.3965507533514625e-05
1.5968224860137102e-05
1.8238929028753545e-05
2.078060182373528e-05
2.359459901156366e-05
2.667786051688508e-05
3.0022592857744662e-05
3.361630204456937e-05
3.744203617850762e-05
4.147884344116351e-05
4.570243257299203e-05
5.008600297395219e-05
5.460113271882632e-05
5.921830208876965e-05
6.390647596233954e-05
6.862699958953998e-05
7.333617105604874e-05
7.799751351853456e-05
8.25903816320752e-05
8.712238521394428e-05
9.160658024093942e-05
9.603884697307664e-05
0.00010041198675681916
0.00010471484108123515
0.00010895293761340148
0.00011314415009228762
0.00011731488557239487
0.0001214977829412337
0.00012573085812922624
0.00013005705807375963
0.00013452396941100421
0.0001391835372721835
0.00014409176268221808
0.0001493083463628334
0.00015489618847737955
0.00016091982027932177
0.00016743025776868635
0.00017426230798638507
0.00017821760567794973
1.1091288551786553e-05
1.1951294334916736e-05
1.3669711212451065e-05
1.5700091822699755e-05
1.8011265286228526e-05
2.0605220317312998e-05
2.3482149549761324e-05
2.6637698421187315e-05
3.006266276105149e-05
3.374302452624764e-05
3.766018186808435e-05
4.1791366442913096e-05
4.6110218846609946e-05
5.058745097651244e-05
5.519143786636119e-05
5.988850611828839e-05
6.464228295830961e-05
6.941437734240077e-05
7.416706615322002e-05
7.886863014644095e-05
8.350045281538085e-05
8.805542974272891e-05
9.253270687271974e-05
9.693193177269139e-05
0.00010124928580792528
0.00010548478686366915
0.00010964473017787846
0.00011374524976253119
0.0001178112376892818
0.0001218749391512382
0.00012597490309947012
0.0001301553239517098
0.00013446561022105387
0.00013896003780556148
0.00014369745145937697
0.00014874093920698003
0.00015415738896402704
0.00016001599952282554
0.00016637336833692166
0.00017307328539081272
0.00017696314658640627
1.0703066601772416e-05
1.1567588855703053e-05
1.3304465908552929e-05
1.536979068480667e-05
1.7731565524116966e-05
2.039052127409748e-05
2.3345397229669972e-05
2.6590224258324636e-05
3.011402858198874e-05
3.390085313565336e-05
3.7929963507998527e-05
4.2176218955821306e-05
4.661058474674504e-05
5.1200728511589986e-05
5.59116107111666e-05
6.0705982199746485e-05
6.554515037613557e-05
7.039034516269038e-05
7.520528787965166e-05
7.995968214376373e-05
8.46314651973712e-05
8.920727044453951e-05
9.368010935316938e-05
9.804648710800522e-05
0.00010230596351201399
0.00010646172528723211
0.00011052329027579708
0.00011450766878304884
0.00011843991054524304
0.0001223525909843987
0.0001262851293302142
0.00013028319524779395
0.00013439826264018294
0.0001386872660061935
0.00014321232575007227
0.00014804047631095286
0.00015324331059527694
0.00015889558828833007
0.00016506065656464743
0.00017159345887462522
0.00017540004720972968
1.0237898463594505e-05
1.1108404242535575e-05
1.2868389367634512e-05
1.497643970004087e-05
1.7399472004325247e-05
2.0136681303603908e-05
2.3185071951906106e-05
2.6536762967667938e-05
3.0178680773241675e-05
3.4092560010997364e-05
3.825511207126561e-05
4.263836775738547e-05
4.721017053760827e-05
5.193480551930322e-05
5.6773736649790924e-05
6.168651648887594e-05
6.663197446832955e-05
7.156989237594704e-05
7.646314404795446e-05
8.127986770088152e-05
8.5995111130601e-05
9.059120048963707e-05
9.505708176795751e-05
9.938736409810719e-05
0.00010358171960558536
0.000107645375186284
0.00011158986944897732
0.00011543396062096308
0.00011920394096081301
0.00012293357082398824
0.00012666370998360693
0.0001304419097927804
0.00013432205212410796
0.00013836407901442215
0.00014263379091969058
0.00014720267381370663
0.00015214765779950572
0.00015754988393912715
0.00016348054750949943
0.0001698079935716666
0.00017351151795072915
9.694424148119034e-06
1.0572534675500209e-05
1.2360623534922822e-05
1.4519596154326379e-05
1.701498644112111e-05
1.9844176018942906e-05
2.3002176084936743e-05
2.647893396765307e-05
3.0258999955160684e-05
3.4321482419441e-05
3.86401790872462e-05
4.3183892182035623e-05
4.791694014921955e-05
5.279986215090202e-05
5.779033643452952e-05
6.284432975530991e-05
6.791753327927342e-05
7.29670729483986e-05
7.795338520801138e-05
8.28419950436812e-05
8.760482785367925e-05
9.222086565925812e-05
9.66761687762705e-05
0.00010096359483065723
0.00010508262173829408
0.00010903941346890623
0.00011284716976761693
0.00011652643839112263
0.0001201053076015697
0.0001236193512176856
0.00012711142346929683
0.00013063139403160954
0.0001342359201275801
0.00013798828334479323
0.00014195831675175308
0.00014622237223788816
0.00015086324831739087
0.0001559691695946419
0.00016162018870348682
0.00016770036145956905
0.00017127877169055897
9.07251256375879e-06
9.959887018691526e-06
1.1781211761675848e-05
1.3999504991710852e-05
1.657859201257408e-05
1.9513776404905453e-05
2.2797857000542697e-05
2.6418414531146093e-05
3.0357410786377984e-05
3.459107315063436e-05
3.9089966554949214e-05
4.3819278097949625e-05
4.873935079753476e-05
5.380647622169042e-05
5.897396561627175e-05
6.419349081608902e-05
6.941667729255842e-05
7.459688037424183e-05
7.969100230384084e-05
8.466115495274346e-05
8.947596604636246e-05
9.411140965868163e-05
9.855117632227899e-05
0.00010278674731581625
0.00010681734455690436
0.00011064991257963635
0.0001142991486044769
0.00011778752122087844
0.0001211452528141856
0.00012441018872656255
0.00012762762696819584
0.00013085014607261273
0.0001341374885239145
0.00013755654302272465
0.00014118142803642948
0.0001450936522241516
0.000149382266273963
0.00015414312809878286
0.00015946601093351487
0.00016525302255870157
0.00016868176739107541
8.373931408318818e-06
9.272061377674512e-06
1.1131525656605338e-05
1.3417356920456187e-05
1.609134004559404e-05
1.9146464980833465e-05
2.2573173669002013e-05
2.635657130813004e-05
3.0475906649012054e-05
3.4904340880658536e-05
3.9608917614134204e-05
4.4550799991372326e-05
4.968581251218197e-05
5.496532232673668e-05
6.033745714096897e-05
6.57486373469243e-05
7.114535415630805e-05
7.647608879868027e-05
8.169322346941872e-05
8.675477073130768e-05
9.16257820451182e-05
9.627932442334037e-05
0.00010069704859417626
0.00010486940828620803
0.00010879565453693524
0.00011248370659949518
0.00011594997301837236
0.00011921912820114263
0.00012232389155260561
0.00012530478299024265
0.00012820992423209941
0.00013109490862327935
0.00013402278780017736
0.00013706420497883068
0.0001402976703492609
0.00014380996754613518
0.0001476965875927142
0.00015206135663593158
0.00015700443646474006
0.00016244830832044157
0.00016570018867916213
7.603122957164207e-06
8.513022075667555e-06
1.041472748168992e-05
1.2775533321219071e-05
1.5554874029177867e-05
1.8743257915695386e-05
2.2328730871168928e-05
2.6293940399109563e-05
3.0615420014578006e-05
3.5263161698065085e-05
4.020043194402631e-05
4.538391589683832e-05
5.0764253295177324e-05
5.62870102048969e-05
6.189406953191895e-05
6.752540216360467e-05
7.312110678451648e-05
7.86235867410294e-05
8.397968005580723e-05
8.914259053840018e-05
9.407345075895397e-05
9.874245365360861e-05
0.00010312950967177066
0.0001072245057499454
0.00011102723589259843
0.00011454711614531274
0.00011780277847285292
0.00012082161195045975
0.00012363931784703766
0.00012629952517554966
0.00012885352268616576
0.00013136014611949613
0.00013388586103260143
0.0001365050542275522
0.00013930054600747976
0.0001423642860601662
0.0001457981386174599
0.00014971397025032433
0.0001542227306039853
0.00015926951153979438
0.00016231466290531597
6.7680858695527025e-06
7.6898354536205e-06
9.636249027294453e-06
1.2077810084699292e-05
1.4971367163434638e-05
1.8304884495970443e-05
2.206413924675821e-05
2.6229520038117304e-05
3.077500434904798e-05
3.5667427404669886e-05
4.086605842540779e-05
4.6322591729846825e-05
5.1981656770491916e-05
5.7781891493888396e-05
6.365757031525655e-05
6.954070018324632e-05
7.536345060953333e-05
8.106072236862843e-05
8.657264942057177e-05
9.184683246250178e-05
9.684012453687394e-05
0.00010151989925230993
0.00010586473781901574
0.00010986461903303007
0.00011352067845607893
0.0001168446765825394
0.00011985830276432861
0.00012259241508948745
0.00012508635375448697
0.00012738736364091837
0.000129550240175219
0.00013163721150040658
0.0001337181174497242
0.00013587089110753155
0.000138182337262372
0.0001407491792122336
0.00014367928205509634
0.00014709228639038085
0.00015110999459194683
0.000155702183223164
0.00015850821227077978
5.881304063221865e-06
6.81342986070601e-06
8.804235566595538e-06
1.132947568421838e-05
1.4343316594862227e-05
1.7831295549505336e-05
2.1777272745278062e-05
2.615983190824366e-05
3.0950780115731854e-05
3.611397182552995e-05
4.160451019865218e-05
4.736850659191004e-05
5.3343534619483104e-05
5.945984789159218e-05
6.564232812134058e-05
7.181306488684131e-05
7.789434422485364e-05
8.381180878167363e-05
8.949749809826294e-05
9.489250445086915e-05
9.994905815363695e-05
0.00010463189677967048
0.00010891892285289374
0.00011280118660920485
0.000116282344556431
0.0001193777446642168
0.000122113319407009
0.000124524458306552
0.00012665498469178007
0.0001285563707316751
0.00013028724845291613
0.00013191330084878493
0.00013350754049084638
0.00013515100988698635
0.00013693387666012334
0.00013895691269451255
0.00014133323075417602
0.00014418958705209544
0.00014765829568039087
0.00015173563622758197
0.0001542679757674113
4.9606572194777915e-06
5.899304230960462e-06
7.929895429667788e-06
1.0537306413537927e-05
1.3673172013178684e-05
1.7320956234259476e-05
2.1463274410649898e-05
2.6077709815982946e-05
3.113460913708471e-05
3.659524971268458e-05
4.2410477059606854e-05
4.852011954501676e-05
5.485335343284519e-05
6.133011416309472e-05
6.786353111837484e-05
7.436318605815538e-05
8.073893887355111e-05
8.690493459715952e-05
9.278340668333158e-05
9.830792497426072e-05
0.00010342582136564452
0.00010809964953572182
0.00011230767139423797
0.00011604348452946459
0.00011931496251029109
0.00012214278850428823
0.00012455876764588326
0.00012660420621422064
0.00012832848279311572
0.00012978799281664129
0.0001310455283300088
0.00013217016781135658
0.00013323768905951135
0.000134331522921149
0.00013554423489026357
0.0001369794973358038
0.00013875448017391045
0.00014100193155561227
0.0001438638988771479
0.0001473646153137963
0.0001495871311121537
4.0301408690304895e-06
4.9680529594582915e-06
7.027646765237473e-06
9.709362654354504e-06
1.2962778360818223e-05
1.6769953854280617e-05
2.1113350698120093e-05
2.5970836105824746e-05
3.131249443607677e-05
3.7097757157127815e-05
4.3273240948188075e-05
4.977164256546146e-05
5.651197305014663e-05
6.340126697292283e-05
7.033769453528629e-05
7.72148514907022e-05
8.392678478893995e-05
9.037323010990602e-05
9.646449879307386e-05
0.00010212550877513791
0.00010729861538922645
0.00011194507614157487
0.00011604518313871282
0.00011959725593448056
0.00012261581767844027
0.00012512926841631446
0.00012717744605603577
0.0001288093422179172
0.00013008117255403873
0.00013105502649538058
0.00013179811096003508
0.00013238266977460723
0.0001328865848580799
0.00013339462655353521
0.00013400037835062216
0.0001348087853715865
0.00013593931167086985
0.00013752908537753862
0.0001397285712299297
0.00014259109375809131
0.00014446701365595585
3.1201758409158826e-06
4.045495004779323e-06
6.114967588483293e-06
8.854545052906775e-06
1.2212678010852061e-05
1.617095071393786e-05
2.0713314156129194e-05
2.582000733188723e-05
3.146271315770773e-05
3.760023012804218e-05
4.4175140661594354e-05
5.1111970581252514e-05
5.831722662643547e-05
6.568151294855441e-05
7.308366318124225e-05
8.039651900399495e-05
8.749373832463624e-05
9.425682153418747e-05
0.00010058151840101663
0.00010638291302053034
0.00011159868609645585
0.00011619042167308538
0.00012014305864927994
0.00012346285418926746
0.00012617436125965728
0.00012831693160256843
0.00012994120389711554
0.0001311060137258475
0.0001318758838575528
0.0001323193608013576
0.00013250816711700962
0.00013251723239106336
0.00013242554306280976
0.00013231779133073595
0.00013228677751124857
0.00013243657268378987
0.00013288648803172395
0.0001337754997339177
0.00013526104149345623
0.00013742606171091636
0.00013891912553837678
2.2672999058223973e-06
3.162188252743553e-06
5.211740478440989e-06
7.982178694158065e-06
1.1421489731006636e-05
1.5511984393586483e-05
2.0241988820626662e-05
2.5597260225390965e-05
3.155384256230953e-05
3.807175460229995e-05
4.5090019201019935e-05
5.252373741550981e-05
6.026379453444959e-05
6.817953883528067e-05
7.61243893996718e-05
8.394383233325438e-05
9.148487588093184e-05
9.860569394092235e-05
0.00010518421265562685
0.00011112456371340715
0.00011636077286406802
0.00012085755808478121
0.00012460855579091574
0.00012763263140897266
0.00012996906426846033
0.00013167238665353167
0.00013280751564348234
0.0001334456388858377
0.0001336611339311749
0.00013352961627153526
0.00013312713099749847
0.00013253041297225118
0.00013181813531107104
0.0001310730477531297
0.0001303849606366297
0.00012985453608803225
0.00012959791959465218
0.00012975230889193077
0.00013047820929705935
0.00013189141068903457
0.00013296786287630768
1.5119055523495645e-06
2.351763962591162e-06
4.340152645506962e-06
7.1019757124958556e-06
1.0584766930359696e-05
1.4775023851524476e-05
1.9669657199309507e-05
2.5264206235688518e-05
3.154299415438899e-05
3.847006826543383e-05
4.598187971590443e-05
5.3982683712804775e-05
6.234363079354089e-05
7.090618757436728e-05
7.948985343582647e-05
8.79035056605877e-05
9.595881190646555e-05
0.00010348380693561963
0.00011033459156262825
0.00011640358036024322
0.00012162343351082634
0.00012596670923535592
0.0001294419384247267
0.00013208731024440522
0.0001339632133072917
0.00013514480278280734
0.00013571541394836944
0.00013576133942077963
0.0001353682004114923
0.00013461891626931127
0.00013359312181128477
0.00013236789950957705
0.00013101959894519375
0.00012962663825239121
0.0001282731903929374
0.0001270536987543276
0.0001260782532607218
0.00012547839076535705
0.0001254120459984674
0.0001260204295075263
0.00012664818049796432
9.014970158112762e-07
1.6518537459590726e-06
3.5244666916410297e-06
6.2220067817732155e-06
9.694337522651315e-06
1.3936731680722597e-05
1.895938118021502e-05
2.4773406621656432e-05
3.1376994943750305e-05
3.8742574142702723e-05
4.6806001217174506e-05
5.545932038037406e-05
6.454866510210172e-05
7.387850919797839e-05
8.322246553949427e-05
9.233964666599099e-05
0.00010099417923674807
0.00010897475054460478
0.00011611085329547728
0.00012228329891718259
0.00012742792960718352
0.0001315328911903841
0.0001346310092320262
0.0001367893332365731
0.00013809786465553885
0.00013865911656713001
0.00013857949580447918
0.00013796303836758605
0.00013690747657646706
0.0001355024831555048
0.0001338297045763648
0.00013196425354183348
0.00012997738130256266
0.00012794012221371332
0.00012592779509450138
0.0001240254152880311
0.00012233396258138637
0.00012097773607432145
0.00012010811401609619
0.00011988769727285012
0.00012003601996943192
8.96449208936447e-06
1.3240513054191655e-05
2.4422558734594976e-05
4.791650789081464e-05
5.7310256020238536e-05
7.741364246332371e-05
8.759261368725402e-05
0.00010671596635362568
0.00011511296001219338
0.00012861455142363642
0.00013354618242123015
0.00013726507041239967
0.00013984075779040217
0.0001413795604597452
0.0001420086607453374
0.00014186242740620313
0.00012865643428103173
0.00012603679630250538
0.00011652955063184125
0.00011492440587039357
0.00011362395731669889
4.962960422281823e-07
1.1682265129273032e-06
2.914548612963922e-06
5.524859477597269e-06
1.8382453597480016e-05
3.137751507394719e-05
3.923064488428801e-05
6.722419158414436e-05
9.745763802331562e-05
0.0001224535749026715
0.00014107208688230875
0.00013975893366096066
0.0001380308049563722
0.00013598115625474577
0.00013369025016909285
0.0001312277449164023
0.00012343236810696535
0.00012091593812983661
0.00011857689135290115
0.00011393409742207563
3.0649072208927003e-07
8.792111490284057e-07
2.469803695288369e-06
4.951139129561936e-06
8.288786284385242e-06
1.2499945605184799e-05
1.7628535914677213e-05
2.3724684159053875e-05
3.08226464705019e-05
3.891942975376572e-05
4.795545634728038e-05
5.780037116833957e-05
6.824738099676864e-05
7.90191723916325e-05
8.978653168268874e-05
0.0001001978778786279
0.00010991473494836331
0.00011864615252712404
0.00012617528440539715
0.00013237335646318
0.00013720014772335845
0.00014069299591663767
0.00014294863152710028
0.00014410236249325518
0.0001443084578204456