# vtk DataFile Version 2.0
time_10.vtk
ASCII
DATASET UNSTRUCTURED_GRID
POINTS   4141  float 
2.284195200976755e-05         7.007024436072326e-17         0.0                           
0.24999999999999864           2.1603306527074637e-05        0.0                           
0.5000209153722273            1.899898067954182e-17         0.0                           
0.75                          1.9380057798686912e-05        0.0                           
1.0000185252915252            -1.8735069689007575e-17       0.0                           
1.25                          1.6627523147254654e-05        0.0                           
1.5000155808307856            -6.197150495747529e-17        0.0                           
1.75                          1.3287542178441703e-05        0.0                           
2.000012041189046             -6.250542304754365e-17        0.0                           
2.25                          9.354416446382142e-06         0.0                           
2.5000079180132992            1.4021291727669934e-15        0.0                           
2.75                          4.874732466923872e-06         0.0                           
3.0000032780849946            -3.115132799894739e-17        0.0                           
3.25                          2.8097757870165597e-17        0.0                           
3.4999981639823865            -4.257971394830926e-17        0.0                           
3.75                          -5.544147203954341e-06        0.0                           
3.9999925624389583            9.406553263122329e-17         0.0                           
4.25                          -1.130894246375877e-05        0.0                           
4.499986715700143             -2.466301509207098e-17        0.0                           
4.75                          -1.730792399167203e-05        0.0                           
4.999980645346                -5.226381454394364e-17        0.0                           
5.25                          -2.351783334433985e-05        0.0                           
5.499974364073763             -1.3661886025070034e-16       0.0                           
5.75                          -2.9953725694357613e-05       0.0                           
5.999967841314426             -8.831462165628654e-17        0.0                           
6.25                          -3.6678184694613834e-05       0.0                           
6.499960998716125             2.2693622279605574e-16        0.0                           
6.75                          2.277919338284633e-05         0.0                           
7.000022181975015             1.7266388639585505e-06        0.0                           
7.250001843334058             2.0854894733844164e-05        0.0                           
7.500020115626112             2.0983152325812803e-06        0.0                           
7.750002235156525             1.8465701262344943e-05        0.0                           
8.000017548782843             2.5232971822482177e-06        0.0                           
8.250002672748924             1.552013003509593e-05         0.0                           
8.500014406006969             2.9776748774703973e-06        0.0                           
8.750003131280252             1.1977110638678799e-05        0.0                           
9.000010663811782             3.4363465607708736e-06        0.0                           
9.250003586174227             7.847620545861798e-06         0.0                           
9.500006349584305             3.876695433404414e-06         0.0                           
9.750004015973014             3.1882676094962526e-06        0.0                           
10.000001527277215            4.279509342483482e-06         0.0                           
4.424959235071225e-06         0.29999804134693103           0.0                           
0.2499962232285245            0.3000046820103972            0.0                           
0.5000047950344564            0.29999247315393546           0.0                           
0.7499905511576448            0.3000050123502109            0.0                           
1.0000051170799598            0.2999866249217921            0.0                           
1.2499846240624901            0.30000532089158954           0.0                           
1.5000054212489884            0.2999805522240142            0.0                           
1.7499784819092101            0.30000562267841063           0.0                           
2.0000057254416133            0.29997426992251286           0.0                           
2.249972125426561             0.3000059395114859            0.0                           
2.5000060526165644            0.2999677477838153            0.0                           
2.7499655081889736            0.30000629530938755           0.0                           
3.0000064264960704            0.29996090721700297           0.0                           
3.2499585363131875            0.3000067119720712            0.0                           
3.500003230832038             0.3000219961839224            0.0                           
3.750021358726937             0.3000036823607165            0.0                           
4.000003931117996             0.30001993562170187           0.0                           
4.250019141289575             0.3000044678523663            0.0                           
4.500004752529333             0.30001736961300296           0.0                           
4.750016387179495             0.30000534537967777           0.0                           
5.000005649742296             0.30001422138491807           0.0                           
5.250013036922774             0.30000626487829773           0.0                           
5.500006572032007             0.3000104668603799            0.0                           
5.750009083778023             0.30000717722601244           0.0                           
6.000007472377806             0.3000061311447419            0.0                           
6.250004566044264             0.30000804230792344           0.0                           
6.500008316477407             0.30000126619905854           0.0                           
6.749999540794905             0.3000088552078125            0.0                           
7.000009113763908             0.2999959552645496            0.0                           
7.249994100067949             0.30000958943073414           0.0                           
7.50000981167344              0.29999028463456634           0.0                           
7.74998833202106              0.3000102365955251            0.0                           
8.0000104417115               0.29998434937602686           0.0                           
8.249982322469293             0.300010843845992             0.0                           
8.500011043890446             0.29997820109364287           0.0                           
8.74997610631048              0.30001145029917986           0.0                           
9.000011660222276             0.2999718431433838            0.0                           
9.249969670706799             0.30001210258519234           0.0                           
9.50001233859542              0.2999652293429905            0.0                           
9.749962952737883             0.3000128486259627            0.0                           
10.000013125597585            0.29995826459027103           0.0                           
2.2276509014480666e-05        0.6000048337194865            0.0                           
0.25000516097493314           0.6000210527339487            0.0                           
0.5000203707301452            0.6000058871576501            0.0                           
0.7500062822571831            0.6000188426964127            0.0                           
1.0000179888466842            0.600007124471861             0.0                           
1.250007566148888             0.6000160867737607            0.0                           
1.5000150347076704            0.6000084762944785            0.0                           
1.7500089389819593            0.6000127240352118            0.0                           
2.0000114656056605            0.6000098656861219            0.0                           
2.2500103245751757            0.6000087474143928            0.0                           
2.500007291058184             0.6000112223267114            0.0                           
2.7500116577611067            0.6000041947143745            0.0                           
3.0000025597212785            0.6000124977550155            0.0                           
3.2500129024275837            0.5999991349449106            0.0                           
3.4999973539714895            0.6000136760521826            0.0                           
3.750014040335858             0.5999936699199724            0.0                           
3.9999917727957643            0.6000147239202426            0.0                           
4.250015047390963             0.5999878852820404            0.0                           
4.499985900862214             0.6000156684843613            0.0                           
4.75001597027111              0.5999818610730561            0.0                           
4.9999798080362385            0.6000165677361007            0.0                           
5.250016868425822             0.5999756368651988            0.0                           
5.4999735172862945            0.6000174870814998            0.0                           
5.750017810569704             0.5999692016146466            0.0                           
5.9999670001508605            0.6000184995882517            0.0                           
6.250018870364715             0.5999624918386698            0.0                           
[...]
POINT_DATA  4141
SCALARS Con float 1
LOOKUP_TABLE default
8.381541661176703e-05
8.994555411754015e-05
0.00010207960646238336
0.00011624000449090033
0.00013221508974409094
0.00015004616142954126
0.0001697643280117344
0.00019136938093132204
0.00021482662332341339
0.00024006624733216103
0.00026698412718248536
0.0002954438766928951
0.00032527996658646694
0.0003563015318931305
0.00038829626044610484
0.00042103327710498985
0.0004542645607695464
0.0004877229339342509
0.0005211858816888855
0.0005549542559961927
0.0005927567459900146
0.0006306369706853611
0.0006647367177101705
0.0006971578267351425
0.000729542301298995
0.0007617938090472356
0.0007939589472019368
0.0008261250621009906
0.0008584395161975937
0.0008910987526768124
0.0009243425412712577
0.0009584490207138949
0.0009937304898986472
0.0010305295308157747
0.001069215177383302
0.0011101789192115255
0.001153829872308753
0.001200582031074923
0.001250740173649678
0.001302951727191113
0.0013330172163631732
8.508156779363544e-05
9.135375413404947e-05
0.00010373237750376126
0.00011815607684391083
0.00013441374675523418
0.00015254165738448467
0.00017256589867724345
0.0001944809569171283
0.0002182467964845691
0.0002437884683479753
0.00027099718754806674
0.00029973277001492854
0.00032982733250629576
0.00036109015922463115
0.00039331375155967865
0.00042628198307545023
0.000459782676216618
0.0004936480729608264
0.0005278210213208398
0.0005631378589189879
0.0005988296996270691
0.0006339108322072745
0.0006679624313261882
0.0007014310328910645
0.0007341864325334695
0.0007666067657930841
0.000798829765612593
0.0008310080909863207
0.0008633199438172128
0.000895980581489568
0.0009292425180886026
0.0009633936949148784
0.0009987546521877271
0.0010356752891402196
0.00107453136332831
0.0011157206401788127
0.0011596580808989018
0.001206763227315853
0.0012573442676548034
0.0013100710505229546
0.001340468413425551
8.436533816035529e-05
9.06352913535474e-05
0.00010304082144390674
0.00011752783981678999
0.00013388032524867268
0.00015213266134003373
0.00017230834434450398
0.0001943990670933671
0.00021836193526547735
0.00024411930384450668
0.00027156019285225674
0.0003005432927420124
0.000330901685208763
0.00036244961036019553
0.00039499223362987124
0.00042834040961035435
0.00046233803748568244
0.000496893754686729
0.0005321250627788942
0.0005671054078939354
0.0006005602189767661
0.0006339256446212765
0.0006682698233242637
0.0007021325244016164
0.0007353192655633696
0.000767932259226449
0.0008001879498861763
0.0008322810669422534
0.0008644215963820102
0.0008968446754671443
0.0009298164795870766
0.0009636353421901819
0.0009986307705783682
0.0010351613085817395
0.0010736117074994496
0.0011143895427425026
0.0011579207187717667
0.0012046369640698836
0.0012548615614418777
0.0013072710580446947
0.001337496747087749
8.312448765376859e-05
8.940448359438238e-05
0.00010186052949884018
0.00011645254266674909
0.00013296293613758326
0.00015142224764757184
0.00017184961565703185
0.0001942319020906955
0.0002185211417924358
0.00024463461002178946
0.0002724565335019824
0.00030184148911079794
0.00033261962896985144
0.0003646039508322116
0.00039759977819200286
0.0004314165299471135
0.0004658746455650902
0.0005008060864933469
0.0005357930489207908
0.0005703049657075936
0.0006042926809635512
0.0006379284150969872
0.0006714576918720981
0.00070496809562929
0.0007380274585385225
0.0007705590301616172
0.0008026569293480757
0.0008344963110945386
0.0008662885562030854
0.0008982780404685738
0.0009307416873113283
0.0009639890042511207
0.0009983611422039827
0.0010342291740873392
0.001071991720918137
0.0011120719782182291
0.001154913590774514
0.00120096854118266
0.0012505828976525075
0.0013024706245593903
0.001332442061297373
8.137018980414254e-05
8.766493058725442e-05
0.00010019549831311851
0.00011493862832630662
0.0001316738862861012
0.00015042651437178431
0.00017120929563824958
0.00019400202226688897
0.0002187491162377664
0.0002453598431763949
0.000273710113458216
0.0003036458660329089
0.0003349879870484243
0.00036753848733163717
0.0004010871025387486
0.00043541515139708105
0.0004702922696230538
0.0005054304555876764
0.0005405031021572844
0.000575237489554303
0.0006094795516328653
0.0006432873131262948
0.0006767595661691889
0.0007098653155030157
0.0007425494805247606
0.0007747264120853987
0.0008064354955860576
0.000837808648452772
0.000869041664329168
0.0009003768796031574
0.0009320967335691197
0.0009645204508337355
0.0009980018459367001
0.0010329272122082834
0.0010697130504253986
0.0011088033593324809
0.0011506658702090543
0.0011957803179737934
0.0012445256441935679
0.0012956673523092188
0.001325271149946861
7.908675514342888e-05
8.540338562773327e-05
9.803517472814267e-05
0.00011297847386098078
0.00013000871213182796
0.00014914400418643818
0.00017038871327130638
0.00019371320767407852
0.0002190516036117283
0.00024630199816379574
0.00027532817026738426
0.000305962664604659
0.0003380110555384302
0.00037125686576543117
0.0004054659205495844
0.00044038842128042477
0.00047575394318827426
0.0005112764388662916
0.0005466744157189487
0.0005817110295975867
0.0006162474412877536
0.0006502309071584717
0.0006836551923578246
0.0007165173282962189
0.000748787633226363
0.000780464559321499
0.0008115931675987774
0.0008422921314842761
0.0008727456229795758
0.000903192859413276
0.0009339201591508732
0.0009652560581081231
0.0009975680095068837
0.0010312598263545465
0.0010667693703366955
0.0011045660988567984
0.0011451477014747997
0.001189028943711119
0.0012366306557616857
0.0012867855384583356
0.0013159008663018424
7.625834794798747e-05
8.260546139960303e-05
9.536840665959577e-05
0.00011056449042250222
0.00012796346131635635
0.0001475743887471411
0.0001693911035131027
0.00019337221670980584
0.00021943889975064223
0.0002474750293507922
0.00027732868526318157
0.0003088148934267705
0.0003417194138708375
0.0003758031282517805
0.00041080640845239685
0.00044645272557115385
0.00048245433478032835
0.0005185224463261531
0.0005543865033297447
0.0005898203691544397
0.0006246592403824793
0.0006588031003449381
0.0006921993254257474
0.0007248210030548533
0.0007566636020655086
0.0007877492528044009
0.0008181471486872539
0.0008479823604609897
0.0008774400706380813
0.0009067617867980399
0.0009362402504405615
0.0009662149879092672
0.0009970689394817659
0.0010292258805770418
0.0010631483002942702
0.0010993353521316555
0.0011383200800722255
0.001180659049339404
0.001226823726088699
0.0012757301832926377
0.001304223701420548
7.28708947604114e-05
7.92585696239504e-05
9.21856782090241e-05
0.00010769071031898428
0.00012553589302662663
0.00014571924902183117
0.00016822202587289434
0.00019298890217956982
0.00021992569896952488
0.0002488993466170231
0.00027973912947335363
0.00031223918373851053
0.0003461621478721574
0.000381243795387051
0.0004171984718880926
0.0004537258289993609
0.0004905196604741649
0.0005272804108855918
0.0005637312019275079
0.0005996341065254778
0.0006348024727568752
0.0006691037045005648
0.0007024543370311625
0.0007348128646317512
0.0007661752714555755
0.0007965787374644169
0.0008261074141123207
0.0008548992921989379
0.0008831487026397123
0.000911105875219413
0.0009390742480760937
0.000967407390149716
0.0009965063129621227
0.0010268173968075364
0.0010588308298352753
0.0010930792634265222
0.0011301359061033267
0.0011706052851891248
0.0012150177790410347
0.001262389664089986
0.0012901133274779912
6.891555502318144e-05
7.535488138629886e-05
8.848151032822169e-05
0.00010435452048885294
0.00012272650797613889
0.00014358243293572306
0.00016688907811940627
0.00019257530849833946
0.00022052956729329105
0.0002505995251847167
0.0002825930214764496
0.0003162803758392045
0.00035139814175850364
0.00038765431776870244
0.00042473512379128726
0.0004623135381309962
0.000500059968298098
0.0005376550281977083
0.0005748035494147946
0.000611247888888166
0.0006467777676427762
0.0006812351903321292
0.0007145146740449959
0.0007465611519014817
0.0007773687412870124
0.000806981288722458
0.0008354950744520595
0.0008630612664814934
0.000889887448441632
0.000916237291762462
0.0009424290724364398
0.0009688337181043384
0.0009958730638224638
0.0010240186314149828
0.0010537909838989445
0.0010857594369325918
0.0011205413905768075
0.0011587946609386767
0.0012011161316811034
0.0012466395975933226
0.0012734283547912036
6.439282961544984e-05
7.089500157631997e-05
8.425724969639822e-05
0.00010055851178836003
0.00011953944261402113
0.0001411700051055534
0.00016540094425425463
0.0001921438881085006
0.0002212683699876568
0.0002526009469596812
0.0002859256897487442
0.00032098626871366725
0.00035748985661168675
0.0003951129893220658
0.00043350947158563854
0.0004723203333962278
0.0005111856783385464
0.0005497579119513431
0.00058771531996803
0.000624774498201248
0.0006607001577613218
0.0006953113648047896
0.000728484402950237
0.0007601533918715334
0.0007903100238264108
0.000819003535208051
0.0008463410154114084
0.000872487727571449
0.0008976669705217052
0.0009221592783328608
0.0009463011566579236
0.0009704838189179247
0.00099515231166161
0.0010208053268994832
0.0010479957535104157
0.0010773318065034837
0.001109478018298574
0.0011451496692255494
0.0011850166916399186
0.0012283479562744436
0.001254017950361527
5.931751476750413e-05
6.589228362016415e-05
7.952422135789613e-05
9.631237758671554e-05
0.0001159830956488883
0.00013848963623158854
0.00016376565153006616
0.00019170476247303797
0.00022215671676527888
0.0002549256207150519
0.00028976969676994274
0.0003264029751352147
0.0003644992711414583
0.0004036986644476089
0.00044361650652266856
0.00048385476990403195
0.000524015260813875
0.0005637139090193852
0.0006025950180641346
0.0006403442299973317
0.0006766990501925762
0.0007114562793605291
0.0007444763366970719
0.0007756850318934902
0.0008050736683351436
0.0008326982156312873
0.0008586781047129455
0.0008831947161506028
0.0009064897809989148
0.000928863692051886
0.0009506740319092572
0.0009723346290591254
0.0009943154456689234
0.0010171435057213926
0.0010414048928074015
0.0010677476655279133
0.0010968849662671314
0.0011295921498113584
0.0011666172658543461
0.0012073817017026133
0.0012317291417914171
5.3724454184215034e-05
6.037777648012136e-05
7.43071434551221e-05
9.163471066179525e-05
0.00011207030490467406
0.00013554924744628812
0.00016198783534572618
0.00019126185350153157
0.00022320127545497295
0.0002575870593569792
0.0002941497342779298
0.00033257039398676294
0.00037248460797729944
0.0004134895392765167
0.00045515422771647766
0.0004970326765888858
0.0005386790048517603
0.000579663621866509
0.000619589152169808
0.0006581048466540648
0.0006949183708675564
0.0007298043372198165
0.0007626094189980944
0.0007932544252716099
0.0008217339895364603
0.0008481146227092427
0.0008725318467389075
0.0008951869060340064
0.00091634356271578
0.0009363253139707397
0.0009555134188723216
0.000974346070080897
0.0009933189727308496
0.001012987483842118
0.0010339703219098186
0.0010569546485207266
0.0010827018087283522
0.0011120478350615714
0.0011458219820721838
0.0011836149829028359
0.0012064159748559492
4.767500781970482e-05
5.440564238400656e-05
6.864762815156877e-05
8.655447801619669e-05
0.00010781783356071003
0.00013235462969964448
0.00016006473930987806
0.000190807614158938
0.00022439468327013496
0.0002605839195138512
0.0002990766026084121
0.0003395171694148699
0.00038149688567740744
0.0004245617073414558
0.0004682242531914618
0.000511979307208136
0.0005553218191019057
0.0005977660162696075
0.0006388640643525295
0.0006782227698471969
0.0007155170834697269
0.000750499680532321
0.0007830063773146725
0.0008129577431897135
0.0008403575752901519
0.0008652891542524766
0.0008879102300428476
0.0009084475538074478
0.0009271918028847201
0.0009444934041966886
0.0009607598635035426
0.0009764549178321759
0.0009920998094921686
0.0010082767989007379
0.001025634880609581
0.0010448974802085814
0.0010668714169084217
0.001092451502196527
0.0011225487752113614
0.0011569389229100918
0.001177950529891791
4.126387893072473e-05
4.8058727597460695e-05
6.260741763139615e-05
8.111185065705665e-05
0.00010324484765088358
0.0001289057652385726
0.00015798067151026284
0.00019031605479918564
0.00022570772831947711
0.000263892044219594
0.00030453988940271184
0.0003472547605643609
0.0003915759801022662
0.0004369875491308223
0.0004829324868109879
0.0005288318235281214
0.0005741067749651289
0.0006182022009520219
0.0006606092878213855
0.0007008854856057587
0.000738670209950178
0.0007736953673138193
0.0008057905268760738
0.0008348831543233243
0.0008609948650231798
0.0008842348804017296
0.0009047920217947465
0.0009229264251500506
0.0009389620579116425
0.0009532808685138489
0.0009663191893855893
0.0009785668384642988
0.0009905691641845541
0.0010029321486773309
0.001016330506693994
0.0010315185515418974
0.0010493430286447809
0.0010707526842928686
0.0010967378757949812
0.0011272729341179053
0.001146235836633773
3.4625672963848155e-05
4.1453674650437666e-05
5.6270868737486735e-05
7.535798062209758e-05
9.837012161325521e-05
0.00012519162677600892
0.00015569970450132753
0.00018973383666929464
0.00022707954802994045
0.00026745466696151166
0.0003104991530164983
0.0003557705211996576
0.0004027463279085768
0.00045083442217315836
0.0004993907323277638
0.0005477433265438427
0.0005952206912946183
0.0006411815109956443
0.0006850430525194609
0.0007263055482449538
0.0007645705630538165
0.0007995522600315847
0.0008310814686036321
0.000859103304853374
0.0008836697335720254
0.000904928866929311
0.0009231127348309696
0.0009385252675468886
0.0009515317870813424
0.0009625511033573448
0.000972050871510938
0.0009805466742460183
0.0009886050203871443
0.000996850332604665
0.001005975862095744
0.001016758319249366
0.001030075522098022
0.0010469218124375989
0.001068361103207358
0.00109457732711786
0.001111220373777924
2.7940086391586105e-05
3.4744612212787686e-05
4.974591330324835e-05
6.935336048975019e-05
9.320784118920301e-05
0.00012118350209402198
0.00015315666657601085
0.00018896938035114927
0.0002284057657395264
0.000271170721776454
0.00031687365776522983
0.00036502003206560215
0.00041501276391004886
0.0004661645107501672
0.0005177204563455038
0.0005688898477038588
0.0006188831734969177
0.0006669510769560296
0.0007124208314937041
0.000754726667611929
0.0007934312967501634
0.0008282373792670079
0.0008589890987017242
0.0008856652429659738
0.0009083660455248063
0.0009272963066476471
0.0009427474067811767
0.0009550803583241224
0.0009647115913133279
0.0009721026853216853
0.0009777546875518529
0.0009822073911606932
0.00098604362882536
0.0009898985229187403
0.0009944736340642558
0.0010005559168428575
0.001009041105685384
0.001020957117656353
0.001037431654432182
0.0010588668158234677
0.0010729140763806717
2.1433781186737913e-05
2.812385613854352e-05
4.3162769068462015e-05
6.316450838322249e-05
8.776247953434506e-05
0.00011682732416245476
0.00015024655548793184
0.00018788016551539606
0.0002295248060534363
0.0002748815709707148
0.00032353104203594233
0.0003749192323703625
0.00042835735830128993
0.00048303699957081295
0.0005380602162009732
0.0005924820565929047
0.0006453608566946865
0.0006958104366529658
0.0007430480014408342
0.0007864324179521493
0.0008254892459220418
0.000859921213891434
0.0008896049636950171
0.000914576633158729
0.0009350099032392645
0.0009511903252013265
0.0009634894681672561
0.0009723417671282107
0.0009782259410051955
0.0009816522856509844
0.0009831562430338598
0.0009832983880351494
0.0009826705968806187
0.0009819081455989778
0.0009817075123851296
0.0009828498534586224
0.0009862305242451976
0.0009928920491067358
0.0010040151071078855
0.0010202240425167953
0.0010314034814644204
1.537763628044664e-05
2.1817919627457896e-05
3.666891352237445e-05
5.6860753658742505e-05
8.20241441202359e-05
0.00011203487139014058
0.00014681277307325617
0.0001862590480011877
0.00023020340686542344
0.0002783571447732252
0.00033027591342004847
0.00038533742075056457
0.0004427385344835251
0.0005015143275586265
0.0005605788827521292
0.0006187840432811633
0.0006749892230358983
0.000728133113377696
0.0007772978924857634
0.0008217579977341184
0.0008610086323443132
0.0008947728465749891
0.000922989459427678
0.0009457865211178404
0.000963446122670139
0.0009763663294703837
0.000985025034827417
0.0009899492385908857
0.0009916918242753648
0.000990816739328934
0.0009878926379606819
0.000983494545786147
0.000978212895732973
0.000972669311456084
0.0009675386936416513
0.0009635774614855692
0.000961657993958316
0.0009628102123869856
0.0009682385620737954
0.0009788136891962776
0.000986872157497536
1.0069459281924024e-05
1.6074860833885767e-05
3.042798750095659e-05
5.051373476063411e-05
7.596016798990748e-05
0.00010667326177231236
0.0001426359767984584
0.00018382218733237744
0.00023012385136954078
0.00028128362931047874
0.00033684006779529074
0.00039609270274401344
0.00045809425301792365
0.0005216746775283333
0.0005854973664478096
0.0006481422417734212
0.0007082049134584492
0.0007643975473114226
0.0008156365450885576
0.0008611050768249057
0.0009002839883442594
0.0009329508593621057
0.0009591523483523499
0.0009791582697630068
0.0009934068585714985
0.0010024496190913926
0.0010069021962560837
0.0010074051633115477
0.001004596509998237
0.0009990959801905058
0.000991500352769627
0.0009823883872301727
0.0009723342174614625
0.0009619280060746805
0.0009518033083801064
0.0009426707070424826
0.0009353579695565667
0.000930853254098464
0.0009303423505575142
0.0009348866028607006
0.0009395836302108872
5.855592437354561e-06
1.116968501772039e-05
2.461723686384197e-05
4.4182256576872234e-05
6.951047705195529e-05
0.00010057099514318564
0.00013744435126786212
0.0001802199597834156
0.00022889352321427717
0.0002832717949108927
0.00034289162956538567
0.00040696517730208666
0.0004743628008629282
0.0005436427222784824
0.0006131293232433018
0.0006810330060773948
0.0007455943870098996
0.0008052295643676084
0.0008586520656162676
0.0009049531001785058
0.0009436315591935182
0.0009745762314471045
0.000998011099966196
0.0010144188631501885
0.001024457676906528
0.0010288833663085804
0.0010284848782836282
0.001024036773698866
0.001016269273680446
0.0010058543494692747
0.0009934053815151298
0.0009794878674109875
0.0009646389778170976
0.0009493945486777743
0.0009343226992611822
0.0009200641076785869
0.0009073789167902135
0.0008972017381593148
0.0008906697753809261
0.000889004492936478
0.0008901102659418753
6.424359810739735e-05
9.551759437786741e-05
0.0001776536058159937
0.000351062722298954
0.00042060925786347673
0.0005697870298146229
0.0006454990771299266
0.0007881048402883383
0.0008509027516000665
0.0009522045042910894
0.0009893616578974754
0.0010174849134246603
0.001037068225840928
0.0010488853970320403
0.001053871872216017
0.0010530224614245477
0.0009548553753279387
0.0009352352741237949
0.0008639432653227779
0.0008518992143293352
0.0008421398755466878
3.1499580711686463e-06
7.849940369863342e-06
2.0315075894126698e-05
3.919428454009087e-05
0.00013323893444031578
0.0002288957436047639
0.0002868551964172845
0.0004941183722929122
0.0007189999253092078
0.0009059181096780047
0.0010473133626420802
0.0010376504477391723
0.0010248416974166388
0.0010095895826862421
0.000992498900858817
0.0009740958335323817
0.0009157160287675033
0.0008968473532647791
0.0008793029580140418
0.0008444673228896804
1.9425235568182973e-06
5.885262396196295e-06
1.716695618579916e-05
3.506573642932937e-05
5.9336812385087257e-05
9.010757320996304e-05
0.00012770613489901373
0.00017251073010889165
0.0002247863385667596
0.0002845259545278011
0.00035130635715524837
0.0004241809825807617
0.0005016353128937577
0.0005816273473925404
0.0006617222019624208
0.0007393082735421252
0.0008118591800869674
0.0008771901792254328
0.0009336581281260976
0.000980269959960004
0.0010166907246428956
0.0010431661899688786
0.0010603905136313252
0.0010693527933840563
0.0010711909562840791
0.0010670710796455514
0.0010581002598175522
0.0010452731050835887
0.0010294472600285553
0.0010113415618259907
0.0009915502991038956
0.0009705686044557902
0.0009488251714331096
0.0009267206152814495
0.0009046708557802156
0.0008831563234784421
0.0008627792012872418
0.0008443290230385312
0.0008288643482694064
0.0008177211601271989
0.000813261913512828
1.3473974688989153e-06
4.565273153475467e-06