# vtk DataFile Version 2.0
time_10.vtk
ASCII
DATASET UNSTRUCTURED_GRID
POINTS   4141  float 
6.932167572561306e-06         2.915771283586833e-16         0.0                           
0.25                          6.5509604619762996e-06        0.0                           
0.5000063399151237            -1.6309073773040184e-17       0.0                           
0.75                          5.870275521180311e-06         0.0                           
1.0000056094656642            -4.585660079992659e-17        0.0                           
1.25                          5.031660591617476e-06         0.0                           
1.5000047135581687            -9.597054585375536e-18        0.0                           
1.7500000000000009            4.0176665785481465e-06        0.0                           
2.0000036399497954            2.4091070760158172e-17        0.0                           
2.25                          2.8265766467271104e-06        0.0                           
2.5000023921224854            6.121589073870275e-17         0.0                           
2.7499999999999996            1.4723286913034136e-06        0.0                           
3.000000990036246             -1.5062318488027494e-15       0.0                           
3.25                          8.459991076505703e-17         0.0                           
3.49999944665012              -1.6005188659838536e-17       0.0                           
3.75                          -1.670970236042982e-06        0.0                           
3.99999775849439              7.571743954354686e-16         0.0                           
4.25                          -3.4076866137520903e-06       0.0                           
4.499995997462059             -1.5760305232709557e-16       0.0                           
4.75                          -5.213820701096193e-06        0.0                           
4.999994170213044             1.8757406929004556e-16        0.0                           
5.25                          -7.0823244094577864e-06       0.0                           
5.49999228061539              2.791958161945927e-17         0.0                           
5.75                          -9.01765963259824e-06         0.0                           
5.999990319553672             -3.489270793935129e-17        0.0                           
6.25                          -1.1038546644865844e-05       0.0                           
6.499988263574751             9.385420864662519e-16         0.0                           
6.75                          6.9134973346915285e-06        0.0                           
7.000006729477815             5.31451663566688e-07          0.0                           
7.250000566196879             6.321928889613674e-06         0.0                           
7.500006095578182             6.421633391673508e-07         0.0                           
7.750000682951532             5.591746058966861e-06         0.0                           
8.000005312386124             7.688653947619514e-07         0.0                           
8.250000813436854             4.695507283475876e-06         0.0                           
8.500004357271656             9.043865961919845e-07         0.0                           
8.75000095020411              3.620890288743391e-06         0.0                           
9.000003223186331             1.0411954164975228e-06        0.0                           
9.250001085879301             2.3711813507410354e-06        0.0                           
9.500001918335052             1.1725078970468424e-06        0.0                           
9.750001214029258             9.633423592198129e-07         0.0                           
10.000000461902747            1.292571905907315e-06         0.0                           
1.3358462724833002e-06        0.2999994102500367            0.0                           
0.24999886208439326           0.30000141233183425           0.0                           
0.500001445968457             0.29999773191747325           0.0                           
0.7499971528850495            0.3000015106037767            0.0                           
1.0000015417351573            0.2999959704306741            0.0                           
1.2499953680265474            0.30000160229021317           0.0                           
1.5000016320967826            0.2999941424819329            0.0                           
1.7499935195442593            0.300001691911408             0.0                           
2.000001722426795             0.29999225257786727           0.0                           
2.249991607706013             0.3000017860080585            0.0                           
2.5000018196139218            0.2999902917017474            0.0                           
2.749989618638898             0.3000018917609479            0.0                           
3.0000019307829793            0.2999882363295503            0.0                           
3.249987524227336             0.3000020157523036            0.0                           
3.5000009966954235            0.3000066742120712            0.0                           
3.7500064782149125            0.30000113110143134           0.0                           
4.00000120520059              0.30000604204810677           0.0                           
4.250005799273914             0.3000013651633459            0.0                           
4.5000014500374474            0.3000052591088154            0.0                           
4.750004960191385             0.30000162683473314           0.0                           
5.000001717614627             0.300004302366055             0.0                           
5.250003943128043             0.3000019010969924            0.0                           
5.50000199271318              0.3000031645995208            0.0                           
5.750002746064849             0.30000217320918815           0.0                           
6.00000226122208              0.3000018533481672            0.0                           
6.250001380505874             0.3000024311294116            0.0                           
6.500002512834278             0.300000384267759             0.0                           
6.7499998636634695            0.3000026732671777            0.0                           
7.000002750221086             0.29999878235719085           0.0                           
7.2499982231453854            0.30000289176300504           0.0                           
7.500002957869083             0.2999970735319071            0.0                           
7.749996485407119             0.300003084195918             0.0                           
8.000003145145135             0.299995286228977             0.0                           
8.24999467611398              0.3000032645909839            0.0                           
8.50000332399486              0.299993435919351             0.0                           
8.749992805748427             0.3000034446731961            0.0                           
9.000003507015258             0.299991523645418             0.0                           
9.249990870501641             0.3000036384302784            0.0                           
9.50000370857563              0.29998953560482416           0.0                           
9.749988851552551             0.3000038602528242            0.0                           
10.000003942672455            0.2999874433224901            0.0                           
6.763951338247701e-06         0.600001491286953             0.0                           
0.2500015886747303            0.6000063872028668            0.0                           
0.5000061779362229            0.6000018049456789            0.0                           
0.7500019226817648            0.6000057104822706            0.0                           
1.0000054499495987            0.6000021737573393            0.0                           
1.2500023054658673            0.6000048708616668            0.0                           
1.5000045511540252            0.6000025769199848            0.0                           
1.7500027149307975            0.600003850068755             0.0                           
2.0000034687451302            0.6000029913479961            0.0                           
2.250003128215099             0.6000026459959108            0.0                           
2.500002205594402             0.6000033959325555            0.0                           
2.7500035257516697            0.6000012700156445            0.0                           
3.0000007763430663            0.6000037760939201            0.0                           
3.250003896639939             0.5999997428792994            0.0                           
3.4999992057227156            0.6000041269742195            0.0                           
3.7500042353852168            0.5999980950932249            0.0                           
3.999997523411135             0.6000044387323568            0.0                           
4.250004534908572             0.5999963523820948            0.0                           
4.499995754821144             0.6000047194848502            0.0                           
4.750004809130808             0.5999945387144687            0.0                           
4.999993920868684             0.6000049865570438            0.0                           
5.2500050758395025            0.5999926659524459            0.0                           
5.499992028451392             0.6000052595499336            0.0                           
5.750005355634691             0.5999907308145705            0.0                           
5.999990069071837             0.6000055603826495            0.0                           
6.250005670622054             0.5999887143106056            0.0                           
[...]
POINT_DATA  4141
SCALARS Con float 1
LOOKUP_TABLE default
7.936911080122327e-06
8.496945615483264e-06
9.604495571269896e-06
1.0895119616899176e-05
1.2349044345701891e-05
1.3969684968153594e-05
1.5759575595337028e-05
1.77184474759379e-05
1.984294645171347e-05
2.2126581566336617e-05
2.4559799861168096e-05
2.7130173491010213e-05
2.9822681672179895e-05
3.262005602662175e-05
3.550313128876586e-05
3.8451109163920025e-05
4.144168976733882e-05
4.445089323250993e-05
4.7458737023593826e-05
5.0491626613853885e-05
5.388029868590606e-05
5.7274106371675676e-05
6.033038135490064e-05
6.323504356381941e-05
6.613445019235373e-05
6.902007392490493e-05
7.18962170495343e-05
7.477083762884005e-05
7.765727347725429e-05
8.057326002723973e-05
8.354041483367856e-05
8.65838005548263e-05
8.97315405164451e-05
9.301447977601994e-05
9.646583932473664e-05
0.0001001208617246809
0.00010401637854227455
0.0001081896658393879
0.0001126681842146142
0.00011733087078006844
0.00012001600806452006
8.052814276429694e-06
8.625630297330877e-06
9.755250552151044e-06
1.1069597260779608e-05
1.2548947312551695e-05
1.419626063063982e-05
1.6013619638482916e-05
1.8000278702682542e-05
2.01524049370002e-05
2.24630470624299e-05
2.4922234848936203e-05
2.7517200816067864e-05
3.0232713720899247e-05
3.30515171850026e-05
3.595487323137457e-05
3.892329244761609e-05
4.1937656128770295e-05
4.4982816965231275e-05
4.805344441592212e-05
5.1223870079416875e-05
5.442538532738204e-05
5.7570114779340206e-05
6.06212795419919e-05
6.361877805054832e-05
6.655079801056214e-05
6.945110997052609e-05
7.233209786068967e-05
7.520753172282361e-05
7.809348914763349e-05
8.10093810489584e-05
8.397795930614881e-05
8.702515808998328e-05
9.017983475533397e-05
9.34734848323699e-05
9.693992743963137e-05
0.00010061496213382345
0.00010453594030626207
0.00010874062987569234
0.00011325679599731811
0.0001179653902893972
0.0001206800862687876
7.986794172003153e-06
8.559488249411938e-06
9.691679963184253e-06
1.1011906426412283e-05
1.2499983780219426e-05
1.4158693357995353e-05
1.5989875494523472e-05
1.7992525806533408e-05
2.016254764482592e-05
2.249274080544902e-05
2.4972931564542835e-05
2.759024396822763e-05
3.0329525560627946e-05
3.3173952670569916e-05
3.610590626920273e-05
3.910828736560232e-05
4.216695566335033e-05
4.527354585841146e-05
4.8438359388319654e-05
5.1578676246963056e-05
5.458129856521817e-05
5.757396276646253e-05
6.065120134711762e-05
6.368338307163646e-05
6.665345766676702e-05
6.95705945609807e-05
7.245419593812595e-05
7.532176579054637e-05
7.819220731134973e-05
8.108669457711668e-05
8.402919719243287e-05
8.704656964758048e-05
9.016846935055134e-05
9.342715753872898e-05
9.685725142033689e-05
0.00010049542292845072
0.0001043799946917615
0.00010854981906259662
0.00011303401270690595
0.00011771416376251786
0.00012041351412241432
7.872472994545278e-06
8.446202638673573e-06
9.583208076226935e-06
1.0913195703722988e-05
1.241581972038891e-05
1.4093498798841182e-05
1.5947667971342394e-05
1.7976875869392857e-05
2.0176558707336327e-05
2.2539049128946532e-05
2.5053732523080068e-05
2.7707353897793924e-05
3.0484486947748117e-05
3.3368185742405136e-05
3.63408332673784e-05
3.938519320237148e-05
4.2485031485946755e-05
4.562517979243987e-05
4.876826146358818e-05
5.1867029631849203e-05
5.4917075801353824e-05
5.793358031744749e-05
6.0938301561997445e-05
6.393901604634725e-05
6.689744688373674e-05
6.980696539789002e-05
7.267612022676148e-05
7.552069658562404e-05
7.835973163439151e-05
8.121522759727057e-05
8.411211217300209e-05
8.707823777934384e-05
9.014429536901612e-05
9.334366265352437e-05
9.67121898673252e-05
0.0001002879368509178
0.00010411080566302516
0.00010822145490767104
0.00011265104032804773
0.00011728451320006104
0.0001199611216420756
7.710809275619361e-06
8.286060023927392e-06
9.43015901729059e-06
1.0774195805515245e-05
1.229753666884179e-05
1.4002102032100998e-05
1.5888736209884923e-05
1.7955335119739867e-05
2.01966347943121e-05
2.260423460612595e-05
2.5166759338195992e-05
2.787016682919203e-05
3.069818884920596e-05
3.3632886223036856e-05
3.665524226283319e-05
3.974551190335913e-05
4.2882942397961704e-05
4.604169003117429e-05
4.9192543782789426e-05
5.231112972133277e-05
5.5383661260336094e-05
5.8415246192653655e-05
6.141462444228838e-05
6.437905827005568e-05
6.730375109653442e-05
7.018126268234793e-05
7.301530817141138e-05
7.581785431756345e-05
7.86065707677926e-05
8.140329128179908e-05
8.42334431964125e-05
8.712574733449484e-05
9.01120246016057e-05
9.322700660384222e-05
9.650813359583254e-05
9.999531616591343e-05
0.00010373060044737967
0.00010775711965625203
0.00011210896649848299
0.00011667568680373541
0.00011931937160276447
7.500316406155862e-06
8.07779944207249e-06
9.231527573762538e-06
1.059417671485527e-05
1.2144699868728281e-05
1.3884348491638927e-05
1.58131850259608e-05
1.792823668922133e-05
2.0223293675039483e-05
2.268893396458298e-05
2.531267787824678e-05
2.8079266906539503e-05
3.0971049276109e-05
3.396842179796005e-05
3.7050225781384514e-05
4.019393927420322e-05
4.337524131106289e-05
4.6568467685616104e-05
4.97484065018094e-05
5.289386489880657e-05
5.59924139558492e-05
5.903932097063991e-05
6.203403389629291e-05
6.497633373090489e-05
6.78636867889194e-05
7.069612539802119e-05
7.347787905381126e-05
7.62197529628568e-05
7.893840661618107e-05
8.165541205235462e-05
8.439655403885681e-05
8.719138804034678e-05
9.007295341114268e-05
9.307753976434268e-05
9.624448823703166e-05
9.961597337267845e-05
0.00010323670578303126
0.00010715293761412392
0.00011140249059267268
0.00011588091370113902
0.00011848087346469656
7.239470904251042e-06
7.820037980977234e-06
8.986238560204202e-06
1.0372399710599592e-05
1.1956911499943478e-05
1.3740178530570477e-05
1.5721286725093366e-05
1.78961798313654e-05
2.0257461941023837e-05
2.2794411952522668e-05
2.5493122325171207e-05
2.8336747013665658e-05
3.1305843895859706e-05
3.4378774298839315e-05
3.753209590291646e-05
4.074089673458352e-05
4.397930583919828e-05
4.7221407241497544e-05
5.0442956001055435e-05
5.362371183972174e-05
5.67489419930897e-05
5.98097299626999e-05
6.280142363818539e-05
6.572170806084864e-05
6.857031082117452e-05
7.134938422035315e-05
7.406531438733839e-05
7.672949489562531e-05
7.93586917423942e-05
8.197470040081987e-05
8.460388833761965e-05
8.727679839447951e-05
9.002785102526789e-05
9.289511327097688e-05
9.592011602886088e-05
9.914767020732913e-05
0.00010262563131394588
0.00010640396648789559
0.00011052500794870318
0.00011489175726323279
0.00011743607340799869
6.926884646130499e-06
7.511534280626944e-06
8.693348286824035e-06
1.0108258874216816e-05
1.1733918794867168e-05
1.3569698646072938e-05
1.5613519097065843e-05
1.7860041551976746e-05
2.0300462348213014e-05
2.2922514726177996e-05
2.5710580879625172e-05
2.8645922197732384e-05
3.170700831806391e-05
3.48699377594597e-05
3.8108930722156214e-05
4.139693708785508e-05
4.4706430269339345e-05
4.8010527154052645e-05
5.1284417578202484e-05
5.4506815820922986e-05
5.7661059358031425e-05
6.073535466970742e-05
6.372233460750903e-05
6.661842009517371e-05
6.942341705830224e-05
7.214084580356874e-05
7.477844560172412e-05
7.734878050904703e-05
7.98694498380839e-05
8.236304341105827e-05
8.48568927024634e-05
8.738280023529087e-05
8.997679636892585e-05
9.267895862465226e-05
9.553327761390944e-05
9.858753918786612e-05
0.0001018931650759743
0.00010550438671457825
0.00010946877961687685
0.0001136983005818442
0.00011617374885934468
6.561617370684664e-06
7.151453938505683e-06
8.352259473599247e-06
9.801438921218393e-06
1.147570658320729e-05
1.3373212859534209e-05
1.5490540394009386e-05
1.78208937471947e-05
2.035387728662362e-05
2.3075465217682738e-05
2.5968089736057e-05
2.90108514431837e-05
3.2179862044978584e-05
3.544871478158406e-05
3.878909843745072e-05
4.2171565479511835e-05
4.556649198472058e-05
4.894522016400855e-05
5.228131185333463e-05
5.555173610312606e-05
5.873774542191917e-05
6.182531359006246e-05
6.480514776251352e-05
6.767250220740522e-05
7.042705711230936e-05
7.307296237171977e-05
7.561907202574242e-05
7.807914896668249e-05
8.04719962898402e-05
8.282141764305306e-05
8.515608005932222e-05
8.75093368034647e-05
8.991907459352933e-05
9.242760328133061e-05
9.508160819808919e-05
9.793212703972298e-05
0.00010103450278391739
0.00010444769933892859
0.00010822521085092903
0.00011228949246967062
0.0001146813381594013
6.143544415187541e-06
6.739701745455727e-06
7.96297442295032e-06
9.452081598549956e-06
1.1182579195649389e-05
1.3151220670548085e-05
1.5353103203321902e-05
1.7779844900121034e-05
2.0419315929216143e-05
2.32555614224838e-05
2.626884983463622e-05
2.9435862934958603e-05
3.273005292972046e-05
3.612217182554022e-05
3.9580988323087694e-05
4.30741833868934e-05
4.6569415071071596e-05
5.00355059196408e-05
5.3443656625880327e-05
5.676855708045072e-05
5.998925729234745e-05
6.308972433200395e-05
6.605908630409039e-05
6.889168069302239e-05
7.158702151064502e-05
7.414978559079543e-05
7.65898314157574e-05
7.89222092665758e-05
8.116715333239046e-05
8.334998706651521e-05
8.550101371944532e-05
8.76553983566448e-05
8.985309031587199e-05
9.213881105204386e-05
9.456211019518099e-05
9.717747106647684e-05
0.00010004441350005347
0.00010322700296027733
0.00010678522729717926
0.00011065360475762413
0.00011294544188808457
5.6738061980474665e-06
6.277310287297484e-06
7.526379820364475e-06
9.060957833259684e-06
1.0855218277606453e-05
1.290435978453874e-05
1.5201898381062829e-05
1.773779301702625e-05
2.0498096494753193e-05
2.346480170616607e-05
2.6615820125419974e-05
2.9925141304100296e-05
3.336319447317197e-05
3.689743802726442e-05
4.049317388356772e-05
4.411457155926459e-05
4.772585682548995e-05
5.1292594487943935e-05
5.4782965408534824e-05
5.8168920972897563e-05
6.1427125886426e-05
6.453960692604614e-05
6.749413327118554e-05
7.028436168983736e-05
7.290983076834114e-05
7.537587424173738e-05
7.769349905767584e-05
7.987923546297541e-05
8.195498809732734e-05
8.394787276465384e-05
8.589008186279633e-05
8.781879722710636e-05
8.977618079267307e-05
9.180946385929684e-05
9.397113014246535e-05
9.6319188230701e-05
9.891746136437117e-05
0.00010183533761634157
0.00010513974664800963
0.00010877882026291607
0.00011095247302247308
5.155326195198742e-06
5.766888697470592e-06
7.044556328357296e-06
8.629631932921623e-06
1.0494698461042985e-05
1.2633288084151045e-05
1.5037310275239106e-05
1.7695077360874274e-05
2.0590824645584835e-05
2.3704423577699387e-05
2.7011258409993794e-05
3.0482322505351513e-05
3.408457615314798e-05
3.778159769307387e-05
4.1534511864464855e-05
4.5303175516647985e-05
4.9047540137832146e-05
5.272910880947308e-05
5.631235715355297e-05
5.976602642929877e-05
6.306416410425688e-05
6.61868819778172e-05
6.912079201075744e-05
7.185917815933691e-05
7.440194847641814e-05
7.675544310012383e-05
7.89321602776898e-05
8.095045034610095e-05
8.283421560613742e-05
8.461265233458648e-05
8.632007210608948e-05
8.799582542000822e-05
8.968435695065936e-05
9.143539964195276e-05
9.33043175826871e-05
9.535257130029869e-05
9.764824146048356e-05
0.00010026608796062495
0.00010328024802653058
0.00010665396308161742
0.00010868947428387602
4.5934008238313045e-06
5.21311644609743e-06
6.521099624868258e-06
8.160598508760486e-06
1.0102446309850586e-05
1.2338468320178828e-05
1.4859054510714615e-05
1.7651005160701094e-05
2.0696845368638095e-05
2.3974334251748056e-05
2.7456181595597384e-05
3.11100414117479e-05
3.4898853346027396e-05
3.8781560217461966e-05
4.271419786090262e-05
4.665129663790401e-05
5.054750701068792e-05
5.4359316151330896e-05
5.8046720745555936e-05
6.157471975995627e-05
6.491450565778417e-05
6.804431178300154e-05
7.094986838584801e-05
7.362452866299761e-05
7.606910479225408e-05
7.829151100295818e-05
8.030629649743401e-05
8.213413428025285e-05
8.380136359116825e-05
8.533960099137809e-05
8.678550444093938e-05
8.818069291487936e-05
8.957186668027095e-05
9.101112861277259e-05
9.255650552409849e-05
9.42726458102064e-05
9.6231639825898e-05
9.851344046570053e-05
0.00010119943602584468
0.00010426936171087394
0.00010614508248972666
3.996322558194591e-06
4.623252837114603e-06
5.9614178883147395e-06
7.657361523859951e-06
9.680102367322102e-06
1.2019839785764889e-05
1.4665682273553195e-05
1.7603223353796044e-05
2.0813537682418292e-05
2.4272390779395456e-05
2.7949705717535967e-05
3.180940071731266e-05
3.580969399436504e-05
3.990391919772924e-05
4.404182846589056e-05
4.817131907911845e-05
5.224043241646342e-05
5.6199466328758244e-05
6.000301020277854e-05
6.361171479039748e-05
6.699369054179391e-05
7.012541488573903e-05
7.299217482362308e-05
7.558804761074641e-05
7.791554003405076e-05
7.998497231930389e-05
8.181373572081806e-05
8.342554048268322e-05
8.484972436686628e-05
8.612073456633936e-05
8.7277793824442e-05
8.836483207103026e-05
8.943066944513019e-05
9.052948744083798e-05
9.172155752598465e-05
9.307423380070926e-05
9.466311013213727e-05
9.65728936140721e-05
9.88919941658052e-05
0.00010161785822340399
0.00010331068541987986
3.3759907215713797e-06
4.007612337480024e-06
5.372966738009609e-06
7.124418305605166e-06
9.229272636317428e-06
1.1676344175788158e-05
1.445391210377124e-05
1.754690634470817e-05
2.0935426497971714e-05
2.4593516665180416e-05
2.848825132359463e-05
3.2579344383802184e-05
3.681939548689595e-05
4.1154832955682726e-05
4.5527547046537694e-05
4.987706768851542e-05
5.414312643991436e-05
5.826833525105334e-05
6.220072962101766e-05
6.589593855346328e-05
6.93188049009841e-05
7.24443573088628e-05
7.5258132293546e-05
7.775592270409107e-05
7.994306303132884e-05
8.183344971596016e-05
8.344840786238177e-05
8.48156072491487e-05
8.596810491012834e-05
8.694363975759127e-05
8.778421781283035e-05
8.853603802069989e-05
8.924976872512523e-05
8.99811851500828e-05
9.079216105947756e-05
9.175198545440822e-05
9.293896233457585e-05
9.444179898306143e-05
9.635540907559039e-05
9.869591778347616e-05
0.00010018169945436874
2.7483945416680843e-06
3.3799193063014116e-06
4.7653505792334115e-06
6.567126434248077e-06
8.751158479974062e-06
1.130533001378353e-05
1.4217827426917565e-05
1.747377770035053e-05
2.1053112439721562e-05
2.4928643064869356e-05
2.906461589952847e-05
3.341597265795938e-05
3.7928508181546506e-05
4.2540018957202476e-05
4.718238386777116e-05
5.178443976279754e-05
5.627534206508808e-05
6.058806898331889e-05
6.466268933506315e-05
6.844905596300933e-05
7.190869482706466e-05
7.501578057284449e-05
7.775722081507215e-05
8.013197683005578e-05
8.214984284653083e-05
8.382988204411516e-05
8.519879798194287e-05
8.628940378442946e-05
8.713932895210737e-05
8.779012270076261e-05
8.828674093735599e-05
8.867749783962418e-05
8.901446689634233e-05
8.935431603554163e-05
8.97595968683755e-05
9.030044625567137e-05
9.10566986466675e-05
9.211998548551785e-05
9.35908420421101e-05
9.550483444099236e-05
9.675898898960154e-05
2.1338280764037874e-06
2.7573976862499513e-06
4.150224646434383e-06
5.991406429432448e-06
8.246088922624738e-06
1.0901852489771967e-05
1.3947896491416742e-05
1.7370949133579868e-05
2.115202030158404e-05
2.526350374496304e-05
2.9666947129789714e-05
3.431182259483125e-05
3.913555554440001e-05
4.406494397758357e-05
4.90189272930034e-05
5.3912456978733366e-05
5.866105037955833e-05
6.318549443502214e-05
6.741612739772863e-05
7.129623822077385e-05
7.478424029777532e-05
7.785454342052886e-05
8.04971789227987e-05
8.271643000686765e-05
8.452880858830485e-05
8.596071240041535e-05
8.704607099532692e-05
8.782428525969432e-05
8.83385405448314e-05
8.86347003515656e-05
8.876074012611426e-05
8.876676676291531e-05
8.870558834851033e-05
8.8633818720822e-05
8.861348162708637e-05
8.871412707693607e-05
8.901548295246663e-05
8.961041288248755e-05
9.060410601860437e-05
9.205192569255637e-05
9.30502086477326e-05
1.5566911416620429e-06
2.1604543200190496e-06
3.5408601692842406e-06
5.403468383404321e-06
7.713108003088051e-06
1.045787075658826e-05
1.3629908926049956e-05
1.721966379671525e-05
2.1211077916214924e-05
2.557736797757949e-05
3.027770098691708e-05
3.5255238286961635e-05
4.043694656444902e-05
4.573539421375671e-05
5.1052512266161034e-05
5.628494661023856e-05
6.133039041206314e-05
6.609403327849938e-05
7.049430388139336e-05
7.446718155749005e-05
7.796865650681703e-05
8.097525379864431e-05
8.348283998540958e-05
8.550414744710257e-05
8.706554815062848e-05
8.820359941752047e-05
8.896178548461702e-05
8.938776547327815e-05
8.953131563989574e-05
8.944302338910866e-05
8.917375000160727e-05
8.877480518771133e-05
8.829878437698361e-05
8.780099748031619e-05
8.734146660915403e-05
8.698745809046191e-05
8.681658081084632e-05
8.692050612528456e-05
8.740647078509747e-05
8.835178939906896e-05
8.907162476258418e-05
1.0439874615625752e-06
1.611569796980272e-06
2.9520851389692252e-06
4.809794633785139e-06
7.1492165854442396e-06
9.961282605067072e-06
1.3243933264016596e-05
1.699418160371936e-05
2.120153186480453e-05
2.5841902428896952e-05
3.087274122549275e-05
3.6229944058212445e-05
4.1827262198023904e-05
4.75585965478512e-05
5.330317383366431e-05
5.893314317628357e-05
6.432255720389084e-05
6.935645224520476e-05
7.393867630455817e-05
7.79973944342604e-05
8.148770837473645e-05
8.439141240902731e-05
8.671435787112612e-05
8.848221742313729e-05
8.973549465020798e-05
9.052454396320148e-05
9.090516909930486e-05
9.093512922935436e-05
9.067171419125673e-05
9.017039000283252e-05
8.948441196768815e-05
8.866531738621168e-05
8.77641419443363e-05
8.683329589564485e-05
8.592902652366404e-05
8.511444012088615e-05
8.446309327028191e-05
8.40628691815055e-05
8.401928280558578e-05
8.442663851046246e-05
8.48465576093865e-05
6.275661883600806e-07
1.13595720888477e-06
2.400161553737683e-06
4.215800522109071e-06
6.548932111647059e-06
9.396439490936753e-06
1.276520011475139e-05
1.666269769595345e-05
2.1087732680761957e-05
2.6021845381294377e-05
3.142207973532505e-05
3.721615281618183e-05
4.330105629910472e-05
4.954592324222176e-05
5.5799258773215427e-05
6.189991456787275e-05
6.76901344185068e-05
7.3028651198847e-05
7.780153435267658e-05
8.192921967497382e-05
8.536896996554064e-05
8.81130400401159e-05
9.018355415855336e-05
9.162551021469758e-05
9.249922288805095e-05
9.287335116346261e-05
9.281912249608967e-05
9.240615767594395e-05
9.169983745029889e-05
9.076013509449332e-05
8.964164381632332e-05
8.839457384854549e-05
8.706654682489082e-05
8.57050300357079e-05
8.436034688066047e-05
8.308929669926415e-05
8.195934273435978e-05
8.105352475238018e-05
8.04729701129374e-05
8.03262848675485e-05
8.042572276405819e-05
6.056382690623644e-06
8.92683731593426e-06
1.642486059676666e-05
3.216293074100331e-05
3.845269128210644e-05
5.1909716449506696e-05
5.8721808471494174e-05
7.151684880248937e-05
7.713376256494645e-05
8.616295911842607e-05
8.945996715451998e-05
9.194555923442583e-05
9.366645261758509e-05
9.469391802342004e-05
9.511315166012231e-05
9.501410847991885e-05
8.618260819871258e-05
8.443180800028328e-05
7.807914277743501e-05
7.700687618923914e-05
7.61384198600515e-05
3.4869180977092903e-07
8.054908517205814e-07
1.9864162391188166e-06
3.7445246848921765e-06
1.2375775868953238e-05
2.1085299794093195e-05
2.6345932598695127e-05
4.508954605194432e-05
6.532278469823801e-05
8.204321606266156e-05
9.448461332282505e-05
9.360581074864187e-05
9.244983295362878e-05
9.107916514373292e-05
8.954746829838143e-05
8.790129581116418e-05
8.269134059131989e-05
8.100982503049452e-05
7.944697008355431e-05
7.634547938123163e-05
2.1606035942742375e-07
6.070790543030189e-07
1.684627481941283e-06
3.3570224244555257e-06
5.601046410626576e-06
8.428404071590401e-06
1.186865659585301e-05
1.595546530552749e-05
2.071181531176645e-05
2.6135708864585916e-05
3.2187238376991474e-05
3.877910221155015e-05
4.577283479778736e-05
5.298279608150078e-05
6.0188652168784065e-05
6.715516981991237e-05
7.365595588117667e-05
7.94964941439507e-05
8.453191610702189e-05
8.867631434028547e-05
9.190303575020319e-05
9.423730386258337e-05
9.574403113755202e-05
9.651389541670338e-05
9.665020521219082e-05
9.625815106246656e-05
9.543711214058157e-05
9.427601274545689e-05
9.28512490562243e-05
9.122663987671293e-05
8.945478442884855e-05
8.75793833221883e-05
8.563818924557324e-05
8.366646479370809e-05
8.170085184907119e-05
7.978377157578363e-05
7.796851989098989e-05
7.632513180257214e-05