# vtk DataFile Version 2.0
time_10.vtk
ASCII
DATASET UNSTRUCTURED_GRID
POINTS   4141  float 
3.699931021564603e-05         3.992718547670969e-17         0.0                           
0.24999999999999917           3.501316467577336e-05         0.0                           
0.50003390726859              -1.0361286501908822e-17       0.0                           
0.75                          3.143376448933921e-05         0.0                           
1.0000300541719371            -1.2916175373217648e-17       0.0                           
1.25                          2.6986565692650548e-05        0.0                           
1.5000252925673485            -3.477623160113288e-17        0.0                           
1.75                          2.1577234443227442e-05        0.0                           
2.0000195563016407            -6.055143117625528e-17        0.0                           
2.25                          1.5196623311268576e-05        0.0                           
2.5000128644268855            -5.005120763848226e-18        0.0                           
2.75                          7.920779444025655e-06         0.0                           
3.000005326186329             4.792750590705502e-18         0.0                           
3.25                          3.7874284421912455e-18        0.0                           
3.4999970084886303            -7.555425290258539e-20        0.0                           
3.75                          -9.031581459405358e-06        0.0                           
3.999987883797525             1.5875384619144412e-15        0.0                           
4.25                          -1.842526120181407e-05        0.0                           
4.499978354405818             -6.169013244635404e-17        0.0                           
4.750000000000001             -2.8207605951053145e-05       0.0                           
4.999968453163345             -7.89741136041568e-17         0.0                           
5.25                          -3.83416635149442e-05         0.0                           
5.499958200030665             -1.7375520113396903e-16       0.0                           
5.75                          -4.885244208757176e-05        0.0                           
5.9999475448235735            -6.729684198818572e-17        0.0                           
6.25                          -5.984206722518049e-05        0.0                           
6.499936359854747             -9.387094047714612e-16        0.0                           
6.75                          3.689581311337726e-05         0.0                           
7.000035939105654             2.768482605197757e-06         0.0                           
7.250002960614025             3.380747528404001e-05         0.0                           
7.500032617285184             3.379914728284447e-06         0.0                           
7.750003604736714             2.995581312394911e-05         0.0                           
8.00002847437114              4.0778343587307206e-06        0.0                           
8.250004323111815             2.5192387543222996e-05        0.0                           
8.500023387972725             4.8234345881335576e-06        0.0                           
8.750005075448993             1.9450591964438377e-05        0.0                           
9.000017320025401             5.575999193649008e-06         0.0                           
9.250005821883612             1.2748330974418895e-05        0.0                           
9.500010315108097             6.298813151696239e-06         0.0                           
9.750006527543041             5.177705132831169e-06         0.0                           
10.000002477008083            6.960553130256827e-06         0.0                           
7.200450988726517e-06         0.2999968051281594            0.0                           
0.2499938450035526            0.30000762422704585           0.0                           
0.500007810436856             0.29998773671351914           0.0                           
0.7499846049355701            0.30000816888912674           0.0                           
1.0000083418259653            0.2999782049891934            0.0                           
1.2499749422635813            0.3000086786753156            0.0                           
1.500008844654263             0.2999682999151123            0.0                           
1.7499649213329946            0.3000091779049636            0.0                           
2.0000093479211216            0.2999580450898167            0.0                           
2.249954542803661             0.30000970194635707           0.0                           
2.500009888869046             0.29994739089633166           0.0                           
2.7499437307705974            0.3000102895594758            0.0                           
3.000010505909789             0.2999362092516065            0.0                           
3.2499323323752254            0.30001097615754707           0.0                           
3.500005170466357             0.3000356326498212            0.0                           
3.750034609658156             0.3000059142413002            0.0                           
4.0000063234465895            0.3000323202197913            0.0                           
4.2500310396795316            0.30000720549650944           0.0                           
4.500007672981905             0.30002817863492637           0.0                           
4.750026589872987             0.30000864606723465           0.0                           
5.000009145485495             0.30002308331438465           0.0                           
5.250021163729711             0.3000101547256239            0.0                           
5.5000106586784705            0.3000169951746519            0.0                           
5.750014750284822             0.3000116518160146            0.0                           
6.000012136317224             0.3000099548739165            0.0                           
6.250007411520601             0.3000130723229939            0.0                           
6.500013522918452             0.30000204593407004           0.0                           
6.749999238985538             0.30001440960607567           0.0                           
7.000014835631304             0.2999934031165831            0.0                           
7.249990382064704             0.30001561961483997           0.0                           
7.50001598615197              0.29998416611922735           0.0                           
7.749980983714877             0.30001668764639816           0.0                           
8.000017026585258             0.2999744901875342            0.0                           
8.249971184126236             0.30001769156407476           0.0                           
8.50001802251945              0.2999644592051202            0.0                           
8.749961039804552             0.3000186949462495            0.0                           
9.000019042193111             0.29995407825048115           0.0                           
9.249950529478358             0.30001977347354974           0.0                           
9.500020163288076             0.29994327184276703           0.0                           
9.74993955047756              0.30002100476840154           0.0                           
10.000021461198989            0.29993188508378954           0.0                           
3.6066832934829904e-05        0.6000077353515855            0.0                           
0.25000827469755              0.6000341048351305            0.0                           
0.5000330085639786            0.6000094697215596            0.0                           
0.7500101191773095            0.6000305468558484            0.0                           
1.0000291687274532            0.6000115024835048            0.0                           
1.2500122275070775            0.600026094050773             0.0                           
1.5000243912631561            0.6000137210196042            0.0                           
1.7500144801343422            0.6000206475020539            0.0                           
2.0000186068050856            0.6000160005484333            0.0                           
2.2500167535385924            0.60001419561371              0.0                           
2.500011830616949             0.6000182271122556            0.0                           
2.7500189421644596            0.600006799361025             0.0                           
3.0000041411316323            0.6000203225408126            0.0                           
3.250020988176147             0.5999985701521438            0.0                           
3.49999567179442              0.6000222619446403            0.0                           
3.750022862227438             0.5999896736299982            0.0                           
3.9999865834300885            0.6000239895321219            0.0                           
4.250024523447404             0.5999802483812879            0.0                           
4.499977013276781             0.6000255495485975            0.0                           
4.750026048528248             0.5999704248038228            0.0                           
4.9999670752200265            0.6000270369135945            0.0                           
5.250027534464788             0.5999602672439077            0.0                           
5.49995680647886              0.6000285579848696            0.0                           
5.7500290929140245            0.5999497574629438            0.0                           
5.999946160451756             0.6000302313473457            0.0                           
6.250030843340593             0.5999387918868637            0.0                           
[...]
POINT_DATA  4141
SCALARS Con float 1
LOOKUP_TABLE default
0.0002150941782248373
0.00023130692896674494
0.0002633763547039131
0.0003008243455004642
0.0003430999157480097
0.00039031807390890624
0.00044256626668208503
0.0004998486240618322
0.0005620775502975166
0.0006290720581456649
0.0007005598486538468
0.0007761827300201201
0.0008555048116522127
0.0009380224771034227
0.0010231744899879816
0.0011103493052023346
0.0011988883522571431
0.0012880806289140238
0.0013773356758258924
0.0014675078085566039
0.0015687810709605603
0.0016703457670096103
0.0017616397428550693
0.0018484716970150476
0.0019352915562541118
0.0020218372616502434
0.0021082280401613866
0.002194691045807821
0.0022816137118063817
0.002369514261458796
0.0024590261727810317
0.0025508847724047706
0.002645915894438649
0.0027450253613703728
0.0028491886066212245
0.002959439844820233
0.0030768590424827785
0.0032025380773139443
0.0033372783368399864
0.0034774621405866566
0.0035581873847397843
0.00021840177897830925
0.00023499243237134373
0.00026771009815203923
0.00030585692002518686
0.00034888335969332745
0.0003968911456072664
0.00044995442859290376
0.000508063271329794
0.0005711159141763829
0.0006389177319316401
0.0007111840813480421
0.000787546743888196
0.0008675637069552098
0.000950732030092944
0.001036503872891267
0.0011243082347875731
0.0012135849067356392
0.0013038942944594099
0.0013951009410436174
0.0014894839414469634
0.0015849802222762466
0.0016789085969860236
0.001770128086719365
0.0018598264106181673
0.0019476745159845209
0.002034695755188874
0.002121258517145771
0.00220776770026186
0.0022946946291213955
0.002382608564117214
0.002472177460607965
0.002564163128200867
0.002659413621574494
0.002758854491892238
0.0028634792997590027
0.0029743391703068904
0.0030925298327119633
0.003219158104774919
0.003355034429217726
0.003496600307091153
0.0035782158750521076
0.00021653929735778357
0.00023312212617794472
0.0002659077075970906
0.00030421825070920175
0.00034749163481074
0.00039582482772462265
0.0004492853416284162
0.0005078560625435733
0.0005714278895227602
0.0006397993044971366
0.0007126801421249714
0.000789699579382915
0.0008704187049137873
0.0009543485766307043
0.0010409763997980613
0.0011298053198158472
0.0012204284274163115
0.0013126149862078265
0.0014066970697617157
0.0015001761040365782
0.0015895628457952124
0.0016787865893107034
0.0017707912360053197
0.0018615861625451526
0.0019506262130323756
0.0020381895282096047
0.002124858396795899
0.002211152910551871
0.002297631230937779
0.002384916922610909
0.0024737152127379623
0.0025648162268215985
0.0026590924346689
0.0027574929025432353
0.00286103564106658
0.0029707984026903964
0.003087906576554948
0.0032134998791821683
0.0033484289737154044
0.0034891511997327024
0.003570308085739904
0.0002133106072021645
0.00022991698558149496
0.0002628302426128233
0.0003014118334032995
0.00034509599457379584
0.0003939699130357738
0.0004480899264109994
0.0005074264880037429
0.0005718574260110053
0.0006411681433734848
0.0007150561808808088
0.0007931402769206986
0.0008749743033251695
0.0009600666895917577
0.0010479057957137343
0.0011379914424857413
0.001229853194779471
0.0013230500398359088
0.0014164611055543866
0.0015086466214849993
0.0015994832783361181
0.001689452984958432
0.001779235474411294
0.0018690735416626919
0.0019577831372901704
0.0020451456624444924
0.002131408989480394
0.002217038828672055
0.002302596732846274
0.002388731187066202
0.0024761765324427575
0.002565753185543459
0.0026583652020937764
0.002754995629712146
0.002856700066830365
0.002964598551404036
0.0030798643556135957
0.0032036916211723343
0.003336991810768625
0.0034763212435480833
0.003556799331233404
0.00020874635185847277
0.00022538728360045382
0.00025848907918903335
0.00029746075971991994
0.0003417297570390092
0.0003913697759007053
0.0004464208301578693
0.0005068351354212166
0.0005724708316903825
0.0006430925654771873
0.000718376294656749
0.0007979182886496878
0.0008812482116940542
0.0009678455339094315
0.001057156989652115
0.0011486064651640604
0.0012415851954642842
0.0013353261841292062
0.001428953619336228
0.0015217375427103563
0.0016132687316513135
0.0017037148317191866
0.0017933526054332838
0.0018821006849096995
0.0019698063033880627
0.0020562285000429036
0.002141463880522808
0.0022258591005753824
0.0023099322717038562
0.0023943256854297855
0.002479788252543057
0.002567166545883248
0.002657398843087238
0.0027515094108412387
0.0028506022551597608
0.0029558536694525963
0.003068501911229519
0.003189815750523322
0.0033207946897758256
0.003458133311279622
0.0035376321082141817
0.0002028061738104925
0.00021949906268324833
0.00025285710144705496
0.0002923453844175393
0.0003373813370618049
0.0003880204778979853
0.0004442811643358499
0.000506091263743166
0.0005732821967623639
0.0006455895616701538
0.0007226576461928164
0.0008040475916514106
0.0008892486554781147
0.0009776911426968595
0.0010687576824258747
0.0011617881572395861
0.0012560653719666315
0.0013508277590590563
0.0014453243878379011
0.0015389235348350222
0.0016312581868819977
0.0017221930605456448
0.0018117165875612177
0.0018998225940679324
0.0019864278784262027
0.0020715213368549578
0.002155215020919892
0.002237818508192064
0.002319817262897342
0.0024018442386327
0.0024846582694148926
0.0025691308042870673
0.00265623690133298
0.0027470482183124616
0.0028427265926439433
0.0029445171931463915
0.0030537391984005267
0.0031717558272223315
0.003299679401724188
0.003434384388875471
0.003512580877874966
0.00019544972637683855
0.0002122156258529901
0.0002459058473067006
0.000286046305761663
0.000332040571928258
0.00038392105176370884
0.0004416789910355467
0.0005052118568107656
0.0005743174719101796
0.0006486943886013761
0.0007279458233395962
0.0008115868654675984
0.0008990544036494896
0.0009897185548269972
0.0010828939353254435
0.0011778487796684656
0.0012738196952297358
0.0013700388317170566
0.0014657858489999101
0.0015604588856757322
0.0016536200929104566
0.0017450047752526707
0.001834473847406233
0.001921954650072005
0.002007431622815475
0.0020909578266635792
0.0021727106904516334
0.0022530165810676936
0.002332362828683662
0.002411387758434981
0.002490866974366068
0.002571701290972859
0.0026549075201712097
0.0027416113373672757
0.0028330413054260873
0.002930523036471638
0.003035471362228559
0.003149362426149375
0.003273444947939185
0.003404816198744876
0.003481353707868238
0.0001866417301698239
0.00020350539110503972
0.00023761142764489545
0.00027854856803672117
0.0003257018944039524
0.0003790755648069214
0.00043862842914352696
0.0005042219343808744
0.0005756140701716203
0.0006524592389655428
0.000734311490011795
0.0008206310225474842
0.000910793699141698
0.0010041030973864799
0.0010998046504028297
0.0011971032577732812
0.0012951866510605018
0.0013932588037274853
0.0014905830034694432
0.0015865256068876765
0.0016805891338039396
0.0017724195457629317
0.001861792736109809
0.0019485950057904172
0.0020328109052158766
0.002114533384384581
0.002193979681661668
0.0022715104651421345
0.0023476370757300902
0.0024230207126564713
0.0024984653621949074
0.0025749095023628417
0.0026534187421481947
0.0027351800145342564
0.0028214970442657847
0.0029137863254193193
0.003013571531230338
0.003122458515661667
0.003241854754427635
0.003369125456240677
0.0034436074818299635
0.00017636116149636512
0.00019334972035577977
0.00022796088128765535
0.0002698462281522905
0.0003183670328820306
0.00037349403111326435
0.00043514885265577737
0.000503152108186868
0.0005772167446320222
0.0006569470545159751
0.0007418410629775779
0.0008312964993328485
0.0009246205413158579
0.0010210433946117971
0.0011197360225466604
0.0012198326154404498
0.0013204588665030805
0.0014207660261169514
0.0015199683653472763
0.0016173788174343744
0.0017124353031711408
0.001804713873246224
0.0018939292877759308
0.0019799294155295826
0.002062692072157232
0.0021423267457356997
0.0022190822499705445
0.0022933538545763365
0.002365687858726927
0.0024367810998905705
0.002507477199967206
0.0025787613563019165
0.0026517555380048976
0.0027277149505549637
0.002808025908781188
0.0028942045714539237
0.0029878945676296313
0.0030908460632674676
0.0032046459417133842
0.0033269738946022365
0.0033989577970316032
0.00016461211392748533
0.0001817526150269316
0.00021695951746990928
0.0002599472154153569
0.00031004733103567254
0.0003671922200209191
0.00043126230350042766
0.0005020337677784092
0.000579170660304707
0.0006622224641004675
0.0007506252481740707
0.0008437069985078468
0.0009406977152950155
0.0010407446896102887
0.0011429332129683054
0.0012463128096781987
0.0013499285981259026
0.0014528564464422462
0.0015542391703862895
0.0016533197397120714
0.0017494675326575604
0.0018421951267603197
0.0019311661256017191
0.0020161970783177576
0.0020972571127851314
0.0021744683045398137
0.002248106944733482
0.0023186049795333305
0.0023865500728191924
0.002452683864251654
0.002517898812267893
0.002583234855138845
0.002649876948132778
0.002719154267420254
0.002792541247568537
0.00287166003553157
0.002958282463580499
0.0030543145848089676
0.0031615406249070146
0.0032780020744795925
0.003346994123940586
0.0001514368299816912
0.00016875207147867274
0.0002046391934594397
0.0002488782892581655
0.00030076534094264986
0.00036018997774490974
0.0004269887963712324
0.000500891728579918
0.0005815118416037595
0.0006683405289135285
0.0007607466787042935
0.0008579808974026573
0.0009591857455013123
0.0010634125872838356
0.0011696451718560266
0.0012768294863146554
0.0013839086718599094
0.001489860916439471
0.0015937373800172484
0.0016946968104340604
0.001792033789007501
0.001885198846251201
0.001973810385618929
0.0020576599102454067
0.0021367128530497327
0.0022111069720023527
0.002281149703893474
0.002347314744792873
0.0024102382201949884
0.002470714563897058
0.0025296927965956697
0.002588274026993561
0.0026477110116083407
0.0027094103091508982
0.00277493714032192
0.002846022537910496
0.002924570896944167
0.003012651603291132
0.0031122602629758923
0.0032218472713536356
0.00328729949461222
0.0001369308056894459
0.0001544330419152044
0.00019106724373230743
0.00023668970106564976
0.0002905552120406623
0.0003525075549488959
0.0004223389940399479
0.0004997338901905478
0.000584254637363977
0.0006753330152848547
0.0007722661938194438
0.0008742190237536933
0.0009802340039809035
0.0010892497117726099
0.0012001276586906643
0.0013116866475595301
0.0014227427345186098
0.0015321520578601843
0.0016388531990725816
0.0017419056840885514
0.0018405217184539024
0.0019340894070844364
0.002022187029948638
0.0021045893234335955
0.002181267427291476
0.002252384493767926
0.002318288755829176
0.002379505410049644
0.002436728560586691
0.002490814144027271
0.0025427748387999455
0.0025937778378668664
0.0026451462025764484
0.002698364212222217
0.0027550867298139943
0.002817152080610986
0.0028865965607514587
0.002965654958864313
0.0030565430422605073
0.0031581656740986915
0.0032194752707862214
0.00012125966539010357
0.0001389415630124237
0.0001763555650181123
0.00022345896601053762
0.0002794612310000192
0.00034415923919667865
0.00041730355848249197
0.0004985372104937634
0.0005873754972931586
0.0006831914103048946
0.0007852067194286285
0.0008924911214396273
0.001003971420389223
0.001118451772418049
0.0012346448411431612
0.0013512124087843103
0.0014668127718362933
0.0015801513087426143
0.0016900301082527036
0.001795392669497115
0.0018953603874250211
0.001989258809445529
0.002076633020645687
0.0021572529729021973
0.0022311104876848995
0.002298410277195047
0.0023595574386543914
0.0024151436180551975
0.002465933936357667
0.0025128562001567245
0.002556993850158391
0.0025995836233564103
0.002642018683801447
0.0026858575589976735
0.00273283881308719
0.0027849008572412683
0.002844204988263223
0.002913146774581682
0.0029941642004850215
0.0030866589444591003
0.003143171070589495
0.00010467687143142997
0.00012249916905528126
0.00016066894669975208
0.00020929289994668589
0.00026753371130657736
0.00033514357429994634
0.000411838456205324
0.0004972292258687113
0.0005907922284944656
0.0006918457660034596
0.000799533745227424
0.0009128199625681651
0.0010304958568371281
0.0011512031333686024
0.00127347095094002
0.0013957655556920206
0.001516548590669124
0.0016343391374208142
0.0017477740651105041
0.0018556615198295435
0.0019570235104987097
0.00205112506794833
0.0021374893473516906
0.002215899688089637
0.002286391006498208
0.002349233617096897
0.0024049128863821243
0.00245410792504471
0.0024976720928734973
0.0025366176219236663
0.002572105997040311
0.0026054453458840654
0.002638095514683472
0.002671681160223751
0.0027080127267750096
0.002749114665471011
0.0027972587946212936
0.002854988900129324
0.0029249590467377777
0.0030071049533363977
0.0030581198468171466
8.754051458356881e-05
0.00010541595359823719
0.00014423131667889763
0.0001943268502505661
0.0002548215295427744
0.0003254296254931079
0.0004058457212040171
0.0004956645641998614
0.0005943381004521489
0.0007011387488101413
0.0008151318865937078
0.0009351628634970963
0.0010598625195367894
0.0011876731473701376
0.0013168944266375004
0.0014457461980728601
0.0015724427316131217
0.0016952714559569891
0.0018126685868537597
0.0019232846843482818
0.002026034771518293
0.0021201299813330557
0.002205090265229726
0.0022807399776456983
0.0023471898632301392
0.002404810009082247
0.0024541984148356917
0.0024961496727520078
0.0025316273333273187
0.0025617428518190247
0.0025877429967064033
0.0026110069956246725
0.002633053997027635
0.0026555610784802144
0.0026803916674783793
0.0027096338235479515
0.002745646454732746
0.0027910995524640307
0.002848848212844103
0.00291939209570379
0.002964177369911335
7.032629176985889e-05
8.809969631195025e-05
0.00012732789827028159
0.00017872018071920674
0.00024136102606843172
0.00031493946166044406
0.0003991498271476486
0.0004935963653551731
0.0005977306425089448
0.0007107947989104062
0.0008317776745985563
0.0009593912218937256
0.001092072701391663
0.0012280154761032203
0.0013652276716650655
0.0015016142528842774
0.0016350746118462484
0.0017636054626174453
0.0018853981312236922
0.001998920384655216
0.0021029756149597823
0.002196735769744876
0.00227974820577483
0.002351919838292244
0.0024134843132616267
0.0024649588161507665
0.0025070972841665044
0.002540845833361663
0.0025673050071493893
0.0025877021006435043
0.002603375520630926
0.0026157721639016034
0.002626458125236552
0.002637142629484833
0.0026497150103123503
0.0026662945530615545
0.0026892921484039673
0.0027214719606796734
0.0027658642523454135
0.002823556041051043
0.0028613658184143144
5.363143480955796e-05
7.105691743309047e-05
0.00011030133934421702
0.00016264737246543813
0.0002271625828664434
0.00030352819177815446
0.0003914701771146826
0.0004906431770012729
0.0006005358756367331
0.0007203852942201941
0.0008491096759594111
0.0009852695901647896
0.0011270651405786499
0.0012723735742604823
0.001418826523947902
0.0015639204659068486
0.001705148629867885
0.001840139086844519
0.0019667827408826233
0.0020833370325992516
0.002188495500007928
0.002281419219237701
0.00236173185861561
0.0024294847153973776
0.0024851009758107257
0.0025293092466505233
0.0025630757315804192
0.002587542750549644
0.0026039789247951726
0.002613744512768181
0.002618273327005563
0.0026190716637754666
0.002617733771354864
0.0026159732180642808
0.0026156696039625984
0.0026189305091866453
0.0026281696715828406
0.002646194483341627
0.0026761815181673017
0.002719816613587134
0.0027499151561312914
3.8166085603570856e-05
5.488134321581521e-05
9.353804260632396e-05
0.00014628945147666627
0.00021219862373141038
0.0002909613690694877
0.0003823908075597885
0.00048625364986539215
0.0006021307505638567
0.0007292924305503227
0.0008665985330141805
0.001012437077880522
0.0011647133865187518
0.0013208968110333815
0.0014781249777997007
0.001633356211655365
0.0017835524939257988
0.0019258692880125981
0.0020578274901642177
0.0021774463033737102
0.002283323668087252
0.002374660421371948
0.002451233353958196
0.002513328999604352
0.0025616531697286796
0.0025972314167123727
0.002621313363048819
0.00263529042759593
0.002640632840526781
0.0026388486956922435
0.002631465453856997
0.0026200329341172206
0.0026061461613172813
0.0025914864782074724
0.0025778796728120027
0.002567370767011993
0.002562315468443723
0.002565490923085739
0.0025801412488280972
0.002608616136071847
0.002630318515246477
2.470642584662626e-05
4.0219752447960326e-05
7.746457156939917e-05
0.0001298326333049641
0.00019638214543645462
0.0002768883481429706
0.00037133224985138084
0.00047967596421076764
0.0006016706141884628
0.0007366775658394606
0.000883521612343886
0.0010403953297302233
0.0012048338719358755
0.0013737730404208394
0.0015436923646362827
0.0017108302258379217
0.001871443687488127
0.0020220756679280518
0.0021597904293294396
0.0022823451524158324
0.0023882794407456454
0.002476920684817391
0.002548317757821029
0.0026031243860309373
0.0026424568952844313
0.002667748791464337
0.002680619496239939
0.002682768321551807
0.0026758989342299372
0.002661675151111276
0.002641706122259321
0.002617557644170549
0.0025907863771759522
0.0025629939482208993
0.0025358993048678
0.0025114280658613715
0.002491819493631877
0.0024797417192598445
0.002478391385486055
0.002490631974229066
0.0025032877978733606
1.4147261260466024e-05
2.7782986669886747e-05
6.254011417681593e-05
0.00011342909850612971
0.00017955584347785462
0.000260860048883278
0.0003575810368398024
0.00046998956428482685
0.0005981177375798389
0.0007415067693313544
0.000898990654572859
0.0010685467306556433
0.0012472439003642457
0.0014313126384589074
0.0016163435163619772
0.00179759687872003
0.001970380538810506
0.002130434895126985
0.002274261620686843
0.0023993459508897586
0.0025042480487595686
0.002588567483000753
0.0026528076174599157
0.0026981788229185656
0.002726380107825518
0.0027393920504054717
0.002739302740489149
0.002728177783914503
0.0027079766298842532
0.0026805118496626553
0.0026474452270050276
0.002610314004363256
0.00257058155170018
0.0025297084224633914
0.002489241733969338
0.002450922614962958
0.00241681159200116
0.0023894357334663338
0.0023718637087455107
0.002367388186137033
0.002370375166761606
0.00016581574562203754
0.00024756804782494093
0.0004629954278254935
0.0009199782218313585
0.001103935514827767
0.0014998325910948727
0.0017014988549035885
0.0020829505674756234
0.00225174994306654
0.0025255914960058516
0.00262677760529446
0.0027038615308294755
0.002758048410807266
0.00279131707029914
0.00280610708489664
0.0028050441689154767
0.0025447627446658614
0.002492045042845713
0.002300178110114238
0.0022677547596956504
0.002241500713872295
7.50056540209908e-06
1.9462243813968612e-05
5.153891590097767e-05
0.00010052712994445274
0.0003463985648413321
0.0005977647543889512
0.0007504804993475707
0.0012987895656754607
0.0018978159740596398
0.00240018052501568
0.0027907275531396255
0.0027655862653529107
0.002731799944663809
0.00269127376918069
0.002645655632264534
0.0025963846161417775
0.0024395462725485748
0.002388765479790917
0.0023415328709461398
0.002247756459510261
4.642984584977225e-06
1.4576320369924526e-05
4.348178738790736e-05
8.983099368784091e-05
0.00015300674717170248
0.00023336016233093052
0.0003317826358260461
0.00044931248715376416
0.0005867059203809697
0.0007440179534473113
0.0009202185403546073
0.0011129023601246975
0.0013181591762659198
0.0015306651169355741
0.0017440214815622034
0.001951312089193146
0.0021457890885300704
0.00232155476537641
0.002474104427570634
0.0026006347426829023
0.0027000881419287047
0.0027729678356147847
0.002821000499113824
0.0028467351211133264
0.0028531542504363124
0.002843347988670124
0.0028202746218499086
0.0027866102058148744
0.002744676315209931
0.002696429488448766
0.0026434954454616385
0.0025872343615739053
0.002528827128062089
0.0024693773759073448
0.0024100277271577207
0.0023520918561204954
0.0022972083427255075
0.0022475167769312777
0.0022058765990532266
0.0021758879533895353
0.0021638945323593298
3.3419785633159867e-06
1.13449229687313e-05
3.720613770923165e-05
8.095157868916956e-05
0.0001420251983475003
0.00022094785482198916
0.0003189266545923317
0.0004373840221097821
0.0005774681067886417
0.0007395526385348082
0.0009227661485391731
0.0011246174150245363
0.0013408072624494505