# vtk DataFile Version 2.0
time_10.vtk
ASCII
DATASET UNSTRUCTURED_GRID
POINTS   4141  float 
7.654411748052e-05            -1.0408010955613085e-17       0.0                           
0.24999999999999847           7.290423305178506e-05         0.0                           
0.5000708118278565            5.211551820698648e-16         0.0                           
0.75                          6.600519944335727e-05         0.0                           
1.0000632654968222            -8.661175979040067e-18        0.0                           
1.2500000000000002            5.706512825286838e-05         0.0                           
1.5000535918569122            -4.4887418169909676e-17       0.0                           
1.75                          4.588483978162176e-05         0.0                           
2.0000416522515114            -4.3639879093004884e-17       0.0                           
2.25                          3.244883800867142e-05         0.0                           
2.5000274930151045            2.8521164068116245e-17        0.0                           
2.75                          1.6933742857444847e-05        0.0                           
3.000011373565217             -1.5515660396328078e-17       0.0                           
3.25                          7.560295971527471e-19         0.0                           
3.499993379295193             1.3765618322337317e-16        0.0                           
3.75                          -1.9916999115818708e-05       0.0                           
3.9999732885102826            -2.0081865120035035e-16       0.0                           
4.25                          -4.064703401595076e-05        0.0                           
4.4999522173407875            -5.756412443330801e-17        0.0                           
4.75                          -6.237145625206948e-05        0.0                           
4.999930179662951             4.772153425239378e-17         0.0                           
5.25                          -8.502892657090797e-05        0.0                           
5.499907204748921             1.2804219262872938e-17        0.0                           
5.75                          -0.00010868422043702331       0.0                           
5.999883173928367             2.1565564597903448e-17        0.0                           
6.249999999999999             -0.00013356741629618564       0.0                           
6.4998578025441445            -2.0931544484189881e-16       0.0                           
6.75                          7.628783127912054e-05         0.0                           
7.000074556069157             5.0698857795520255e-06        0.0                           
7.250005539007403             7.056345998205742e-05         0.0                           
7.500068270034903             6.551941766703743e-06         0.0                           
7.750007090669641             6.302010497084426e-05         0.0                           
8.000060042034708             8.217836166075671e-06         0.0                           
8.250008799862874             5.3342283245904614e-05        0.0                           
8.500049612493981             9.984401111287048e-06         0.0                           
8.75001058044656              4.1389956871305904e-05        0.0                           
9.000036902634141             1.176469013059623e-05         0.0                           
9.250012347135364             2.7205330371882423e-05        0.0                           
9.500022013071826             1.3479121733819554e-05        0.0                           
9.750014023162441             1.0993796790583377e-05        0.0                           
10.000005167976019            1.505552855291498e-05         0.0                           
1.56539814352171e-05          0.29999283845747593           0.0                           
0.24998635833529628           0.3000166995101419            0.0                           
0.5000171525294435            0.299972928471405             0.0                           
0.7499660201732624            0.3000180330152954            0.0                           
1.0000184614462386            0.2999518557906049            0.0                           
1.2499446104285894            0.30001930144127376           0.0                           
1.5000197173332435            0.29992980988046025           0.0                           
1.7499222562138372            0.30002055415382073           0.0                           
2.0000209809914424            0.2999068311045573            0.0                           
2.249898948950203             0.3000218669989179            0.0                           
2.500022332375294             0.29988280260985295           0.0                           
2.749874515075852             0.30002332267029136           0.0                           
3.000023852961032             0.2998574388195941            0.0                           
3.249848616305047             0.3000249955073925            0.0                           
3.5000092394601836            0.3000737958474475            0.0                           
3.7500719015130404            0.3000110631499009            0.0                           
4.000012054651265             0.3000675298106825            0.0                           
4.250065022410043             0.3000141730767858            0.0                           
4.500015288461167             0.3000593042816804            0.0                           
4.750056076024216             0.30001759988838517           0.0                           
5.000018782754843             0.30004885451972263           0.0                           
5.250044857512147             0.3000211701285348            0.0                           
5.500022362135051             0.30003609795524133           0.0                           
5.750031344100815             0.30002471408416154           0.0                           
6.000025863994162             0.30002112082050286           0.0                           
6.250015665383504             0.30002809337428893           0.0                           
6.500029172865931             0.30000408164500736           0.0                           
6.749997989835151             0.3000313283913302            0.0                           
7.000032373948167             0.2999852621164235            0.0                           
7.2499786397442465            0.30003429501980794           0.0                           
7.500035195668165             0.2999649538648473            0.0                           
7.7499579204996145            0.300036931364747             0.0                           
8.000037775622616             0.29994351819728965           0.0                           
8.249936160076198             0.3000394403673519            0.0                           
8.500040271518747             0.29992114147482635           0.0                           
8.749913479308734             0.3000419608110125            0.0                           
9.00004283141734              0.29989782854035296           0.0                           
9.249889824959608             0.3000446560904719            0.0                           
9.500045622418588             0.2998734076004394            0.0                           
9.749864966152884             0.3000476913428874            0.0                           
10.00004880381524             0.2998475350846695            0.0                           
7.423528770503269e-05         0.6000138155557315            0.0                           
0.25001514390948204           0.6000706470893183            0.0                           
0.5000685751926017            0.6000180490920395            0.0                           
0.7500196123571928            0.6000637934246313            0.0                           
1.000061056529691             0.6000229181832842            0.0                           
1.2500246418457184            0.600054839894472             0.0                           
1.5000513468361105            0.6000281810862205            0.0                           
1.7500299767561427            0.6000435754838209            0.0                           
2.0000392976000394            0.6000335724134661            0.0                           
2.250035354805803             0.600029973295688             0.0                           
2.500024937970381             0.6000388509511873            0.0                           
2.750040553541655             0.6000141552146282            0.0                           
3.0000084230293154            0.6000438598542736            0.0                           
3.2500454675660873            0.599996345437683             0.0                           
3.4999900335395617            0.6000485693671017            0.0                           
3.7500500390155773            0.5999769113253752            0.0                           
3.999970120226073             0.6000528107823218            0.0                           
4.25005413104579              0.5999561403758494            0.0                           
4.499948974158882             0.6000566843091423            0.0                           
4.750057932785633             0.5999343272776491            0.0                           
4.99992685490954              0.6000604144846683            0.0                           
5.250061665525386             0.5999116159114485            0.0                           
5.499903843738875             0.6000642351541563            0.0                           
5.750065573075826             0.599887962501091             0.0                           
5.999879833820794             0.6000684026529703            0.0                           
6.2500699122328065            0.5998631347069032            0.0                           
[...]
POINT_DATA  4141
SCALARS Con float 1
LOOKUP_TABLE default
0.0006862187032091948
0.0007602414056867593
0.0009061202218704216
0.0010782126048196978
0.0012744764692279532
0.001495755871855056
0.001742729321769505
0.002015657969542746
0.0023143436030174055
0.0026381179314432872
0.00298584960870554
0.0033559665659840966
0.003746490284586494
0.004155076088551502
0.004579049689084029
0.005015422552657235
0.0054608800950110845
0.005911737171113591
0.00636505771930286
0.006828049463082389
0.007368684784778951
0.007914842674673652
0.008395840146782095
0.008852407656132717
0.009313100162092454
0.009776079624878767
0.01024166198717744
0.010710680585292542
0.011184833342310975
0.011666503383015624
0.01215866646503884
0.012664812067050531
0.013188877623170676
0.013735187525385712
0.014308392976768985
0.014913409671288867
0.015555345887095782
0.016239333882939844
0.01696903831973162
0.01772540495966785
0.018161127654382606
0.0006993242256994857
0.0007752199669553177
0.0009241856290010422
0.0010996534124531252
0.0012995870969715767
0.0015247704261006905
0.0017758195427507624
0.0020529288083275055
0.002355832340381596
0.0026837967469233526
0.003035632512779573
0.0034097224674528945
0.0038040661000255872
0.004216338907317972
0.004643968834493929
0.005084248693570834
0.0055345344498362505
0.005992941092434461
0.006459643013161772
0.00695001733343547
0.00745186431353869
0.0079477213528674
0.008430242987523439
0.008906409486053144
0.009374763436643865
0.009841686920509332
0.01030915274078583
0.01077914907385073
0.011253910977462853
0.01173613898833143
0.012229016331434667
0.012736187424091295
0.013261717033171016
0.013810041284617203
0.014385913305679638
0.014994343530265807
0.015640528369787604
0.01632968290444913
0.017065517262375953
0.017829256166589185
0.01826974303110717
0.0006921787467033282
0.0007679412744254574
0.0009170585953039786
0.0010930971756474446
0.0012939823011791044
0.001520487173777175
0.0017732085050961338
0.002052318863646305
0.002357530534065949
0.002688091975294765
0.003042804973891511
0.003420063129209837
0.003817914505457762
0.00423415552183032
0.004666474876829229
0.005112686396259044
0.005571183971304838
0.006041490536950007
0.006526587688404058
0.007011220970337559
0.007472157940985848
0.007936018861666548
0.008423416638342526
0.008907723095780768
0.00938477913768103
0.009856229424480995
0.010325428564112777
0.010795137142121866
0.011268166692583782
0.011747575224136704
0.012236786856438349
0.012739624736135605
0.013260304157847604
0.013803403218943569
0.014373820270421493
0.014976721459738088
0.015617473577339001
0.01630147495744991
0.017032639058692123
0.017792195144860436
0.01823031999050186
0.0006797205955529403
0.0007554464194749517
0.000904863628782687
0.0010818302301713455
0.001284279354785903
0.0015129582843788924
0.0017684301789282488
0.002050828205574742
0.002359822861284208
0.002694622027450687
0.0030539928888199857
0.0034363069930923385
0.0038396115164418066
0.004261731648412094
0.004700408445248165
0.005153473419512421
0.005618934290384885
0.006094900065022836
0.006574982054513544
0.0070502448255954355
0.00752048188287282
0.007989506444247733
0.00846231732859382
0.008940690767831926
0.009416549127008213
0.009887975993040575
0.010356067570156322
0.010823178143922554
0.01129211666222912
0.011766085965439883
0.012248683902033099
0.012743914092968406
0.013256178585229294
0.013790254594751701
0.01435125830561842
0.014944597397627895
0.0155759064691911
0.016250877629090492
0.016973735326707904
0.017726182334713677
0.018160837273761717
0.0006621389213663714
0.0007378101094797444
0.0008876791574999157
0.0010659780657142049
0.0012706449254332474
0.0015023909267549683
0.001761728531788921
0.0020487307621969413
0.002363000936163266
0.0027036745253992602
0.0030694419133030625
0.0034585922235355793
0.003869077896239404
0.004298595704229381
0.004744669605652596
0.005204679206202777
0.005675748240156698
0.0061538882462742585
0.00663422472042748
0.007112742956001347
0.007587392128121368
0.008059808367197944
0.008532206857310673
0.009004213481933308
0.009474680110275784
0.009941608509030033
0.010405023069490683
0.010866438043381629
0.011328327748487233
0.011793815836472295
0.0122665627581467
0.012750712885700932
0.013250861191240375
0.013772020581729659
0.014319583919232217
0.014899277416145313
0.015517097112868508
0.016179140468101382
0.01689009562170852
0.01763239932203723
0.018062130206645516
0.0006393114478246503
0.0007149352147102861
0.0008654243518899554
0.001045478949992102
0.0012530376367764558
0.0014887610132038108
0.0017530926712783863
0.0020460230504434447
0.0023670604594321696
0.002715232339869918
0.0030891050779432855
0.0034868210519124828
0.003906149497912077
0.004344542176491772
0.00479917247301384
0.005266926891388889
0.005744269460074898
0.006227276596232033
0.006711983669863276
0.007195066616424522
0.007674790397111613
0.008150770572053493
0.00862325209362168
0.009092307455432987
0.009557262051251215
0.010017656397555913
0.010473611276454372
0.010926351060687609
0.011378084212412943
0.011831823591559303
0.012291249702220479
0.012760628007843342
0.013244753172717526
0.013748904662684417
0.014278804065798545
0.014840567982017086
0.015440646426054548
0.016085659349887673
0.01678091360922957
0.017509788748737577
0.01793293060244395
0.0006111387432959564
0.0006867292253191328
0.0008380263751046257
0.00102028136162262
0.001231426943853815
0.0014720576730754497
0.0017425297834828871
0.002042729306411121
0.0023720429218302167
0.002729356668094299
0.0031130707444114217
0.003521128674599216
0.003951057227121556
0.0044000095273207815
0.004864801267603125
0.0053419291000558495
0.0058276244673484984
0.0063179967260718365
0.006809340802580045
0.007298577080689468
0.007783522059623419
0.008262930652893357
0.008736173586743374
0.009202840401210211
0.009662664112960538
0.010115589545213447
0.010562145791170314
0.011003631349695689
0.01144221690602211
0.01188089704371423
0.01232341000613686
0.012774163951502555
0.01323817848267117
0.013721036466593511
0.01422884020407051
0.014768166076712462
0.015346007256688401
0.015969618192503997
0.01664505615142034
0.017356856161174338
0.017771560422875938
0.0005775670523532619
0.0006531429323017651
0.0008054475464009758
0.00099036321410813
0.0012058073039388573
0.001452292225229321
0.0017300697017598836
0.0020389024457140546
0.0023780332867588457
0.002746179783228409
0.003141543268368127
0.0035618316011322305
0.004004294039533106
0.0044657656972262325
0.004942720165977912
0.005431341655295202
0.005927635650924862
0.006427607766830735
0.006927510358497312
0.007424096010155659
0.007914807078276498
0.008397804381397391
0.008871869890394847
0.009336275207457043
0.00979070011086289
0.010235299470075445
0.01067081602434624
0.011098723049739247
0.011521293518817107
0.011941613981146562
0.012363551679811043
0.012791707134546937
0.013231367102472052
0.013688462356375124
0.014169528988913821
0.014681669329152937
0.015232502586325044
0.01583001934767484
0.01648115522814595
0.017171842845176193
0.01757603469465173
0.0005386311364493441
0.00061420622140006
0.0007677141893835394
0.0009557517737370085
0.0011762090302914784
0.0014295002619211475
0.001715758431665283
0.002034609075063716
0.0023851356567636747
0.0027658682632748727
0.003174786137889176
0.003609335221159486
0.004066461957774285
0.00454266467239662
0.005034066281045181
0.005536514974684796
0.006045722596241142
0.006557443160970562
0.00706767718013651
0.00757286943872656
0.008070053283060277
0.008556918930271582
0.009031810058077436
0.00949368812608615
0.009942117376963199
0.010377285709561588
0.010800068511094659
0.011212094406598911
0.011615796295411566
0.012014427976630045
0.012412054286932076
0.0128135246677653
0.013224441811214804
0.013651131376453797
0.014100614152367087
0.014580578460250607
0.015099343461517348
0.015665729075243138
0.016287674433323462
0.016952765602454675
0.017344104291369098
0.0004945029931298636
0.0005700711910339747
0.0007249485029142956
0.0009165437930364367
0.0011427062645854933
0.0014037374363203338
0.001699641989855471
0.0020299016413802924
0.0023934335319487432
0.0027885700785035285
0.003213052977080149
0.003664044866433389
0.004138162467605971
0.004631534887321474
0.005139890735239823
0.0056586774984345315
0.006183213720410854
0.006708868197385407
0.007231250947640775
0.007746392109316079
0.008250885581216826
0.008741982783499363
0.009217639943548864
0.00967653686260096
0.010118087981378338
0.010542463096064778
0.010950617235125044
0.011344324164787973
0.011726200581688905
0.012099715896177695
0.012469186854254008
0.012839762930975435
0.013217408460348913
0.013608886491292075
0.014021745965991301
0.014464310700148107
0.014945661329563542
0.015475527976182214
0.016062968800448267
0.01669748961497397
0.017073334710949847
0.0004455479570681554
0.0005210605711691036
0.0006774028693495981
0.0008729246145210979
0.0011054205237322815
0.0013750675544801734
0.0016817397137116811
0.0020247780602808164
0.0024029371496973517
0.002814351239833178
0.0032565157162577473
0.003726289874828035
0.004219927196319747
0.004733138090832199
0.005261188255860621
0.005799032990056395
0.006341483536226558
0.006883395891355102
0.007419866819891392
0.007946418666550594
0.008459155939587609
0.008954883577856365
0.009431186215453987
0.009886476040039605
0.010320021040256673
0.010731963096318832
0.011123331794549227
0.011496053660562193
0.011852955868404411
0.012197762962176712
0.012535088387580384
0.01287042428759891
0.013210133946935395
0.013561450066115682
0.013932480083363395
0.014332216849796143
0.014770545869478967
0.015258169484669775
0.015805363695766572
0.0164038248105218
0.01676121181030605
0.00039238669792665
0.00046772015718258604
0.000625494700688965
0.0008251843024309214
0.0010645178136006346
0.0013435411299753237
0.0016620055289767938
0.0020191278820068767
0.002413517672745608
0.0028431221960992193
0.0033051888586303623
0.003796253769380566
0.004312165276088841
0.004848148766963724
0.005398915538396
0.005958814049243065
0.006522016606181056
0.007082729290908286
0.00763540886873448
0.00817496898371914
0.008696959994162668
0.009197712052579632
0.00967443789711092
0.010125298341035188
0.010549437256127388
0.010946994369419757
0.011319102981021137
0.011667878038701555
0.011996398785953368
0.012308689665813766
0.012609703460929943
0.012905311023536639
0.013202301325168196
0.013508394486561721
0.013832268269631758
0.014183595900528593
0.014573086154571608
0.015012449076511721
0.01551325211008967
0.016069649731394887
0.016405279546788422
0.00033595963847983296
0.0004108719737571025
0.000569838783879453
0.0007737279639768815
0.001020196782377662
0.0013091621074606135
0.0016402751378609116
0.002012663107647644
0.002424826208975928
0.002874551181465033
0.003358844854552063
0.0038739007605925967
0.004415110760062528
0.004977129946220896
0.005553997858885086
0.006139312710154012
0.006726448839758467
0.00730880188779818
0.007880042388802234
0.00843435771401231
0.008966664561272923
0.009472779460135737
0.009949541216535844
0.01039488582659252
0.010807879416502436
0.011188717869668225
0.01153870303574318
0.011860205077319268
0.012156619972054262
0.012432329916774319
0.012692673665692574
0.012943932501992649
0.013193336308893931
0.013449092238810493
0.013720436151635993
0.014017703998754657
0.014352413592049583
0.014737283161355913
0.015185210675246075
0.015693063369089426
0.016003310947021097
0.0002775878675772913
0.00035166254603414534
0.0005112725010497265
0.0007190766331687026
0.0009726651664590348
0.0012718408070202668
0.0016161975277717304
0.002004831931598358
0.002436195417608501
0.002907961311169667
0.0034169159703220154
0.003958892417296196
0.004528763265181911
0.005120504162561682
0.005727331581135796
0.006341910088840734
0.00695661566709517
0.007563834475925231
0.008156272122380013
0.008727247719001753
0.00927095018953228
0.009782640386563983
0.010258790573648409
0.010697160867487053
0.011096819172174534
0.011458115930175322
0.011782627667138928
0.012073083881883075
0.012333291033665192
0.012568065730034748
0.012783186965575859
0.012985375194217417
0.013182303421711047
0.013382643260874167
0.013596146126096654
0.013833756358072788
0.014107745271812983
0.014431796316134874
0.014820132768484323
0.015272564288315816
0.015553512732363162
0.00021901997287220563
0.0002915973401766995
0.00045086730967649374
0.0006618545146038855
0.0009221027519876317
0.001231332812245327
0.0015891511208889935
0.001994715532688118
0.002446523146447119
0.0029422101874404588
0.003478380964939035
0.004050493168683296
0.004652822896590033
0.005278525135732606
0.0059197950246936215
0.006568123201827231
0.007214626600787797
0.007850426137715473
0.008467036872233791
0.009056735553873131
0.0096128749084181
0.010130122730966654
0.010604614875322495
0.011034022480997581
0.011417543361218535
0.011755834403124124
0.01205090529870046
0.012305994831396026
0.012525449119028398
0.012714618504991152
0.012879785908803206
0.013028136094888836
0.013167771695056571
0.013307779205702839
0.013458345525620804
0.013630922464436132
0.013838428408128762
0.014095415360877462
0.014417376213871614
0.014807254134105765
0.015054760508649056
0.00016244932258108934
0.000232548187788955
0.0003899179405143843
0.0006027596541355747
0.000868612001645351
0.001187167639484857
0.0015581488230224875
0.0019809112510857383
0.0024541407300420663
0.0029755541231347685
0.0035416386959472995
0.004147467822332944
0.004786625194005131
0.005451260166701607
0.006132282465972325
0.006819687568854756
0.007502986261688972
0.00817169758127549
0.008815855575839332
0.009426479645361646
0.009995965425355382
0.010518366499789938
0.010989553946244316
0.011407257127461736
0.011771002961490595
0.012081979922278658
0.01234285724066429
0.012557589442709103
0.012731232880114149
0.012869795672806534
0.012980136579334297
0.013069922911041488
0.013147653158365344
0.013222746765459816
0.013305701591547973
0.013408318732181845
0.013543988372468717
0.013727974100740732
0.013976920391018936
0.014297058591480104
0.014506861648201932
0.00011047739950248167
0.00017671530039516635
0.000329901280957737
0.0005425178705146715
0.0008121653631959851
0.0011385776922563757
0.0015217398307106821
0.0019614101284225888
0.00245667415868066
0.003005504803282527
0.003604376028156652
0.0042479790055157726
0.004929086207581553
0.0056385970810628365
0.0063657797827906355
0.007098698131643679
0.007824786220641002
0.008531510303278072
0.009207044296586392
0.009840884539686463
0.01042434166142104
0.010950869241313277
0.01141621531425515
0.011818407860775534
0.012157605004745763
0.012435852143614234
0.012656791737486604
0.012825368466983962
0.012947564894526907
0.013030193846225347
0.01308076422322389
0.013107429511553439
0.013119022261483353
0.01312517443955707
0.013136522385936513
0.01316499594578783
0.013224196507125347
0.0133298280380051
0.013499542842812915
0.013742952470950665
0.013910812769215844
6.600230395806923e-05
0.00012652266723515323
0.00027239407556267056
0.0004818419580603895
0.000752569873205486
0.0010844335320720014
0.0014779195769263286
0.0019334856713101659
0.0024509162545948877
0.0030286951359913554
0.003663444462745341
0.004349497662115803
0.005078671937053706
0.005840293888762813
0.00662150526062118
0.007407837215637814
0.008183999334059085
0.008934791975171542
0.009646028803580852
0.010305356274968756
0.010902877960966463
0.0114315295490226
0.011887192884018282
0.012268576904568167
0.01257692056693445
0.012815586426754557
0.012989613426941497
0.013105288237892877
0.013169779841550829
0.013190866537696784
0.013176770706859343
0.013136106196840686
0.013077936387466895
0.013011937711190556
0.012948662730826172
0.012899899800894331
0.01287912775082314
0.012902079901616677
0.012986980011045679
0.013147194938893502
0.013269129411524276
3.4879283914997546e-05
8.44245096271143e-05
0.00021902480132331774
0.00042142773923801123
0.0006894127868957528
0.0010231873300856728
0.0014240769260154113
0.0018936316606084963
0.0024327475609102573
0.0030407861912002403
0.003714770776865412
0.004448747237360878
0.005233412123065797
0.006056094782726799
0.00690114626121339
0.007750727273059961
0.008585917813611324
0.009388006583895448
0.010139781343156608
0.010826641518327894
0.011437394819880124
0.011964664898319268
0.012404910712414261
0.012758118584032651
0.013027266616775645
0.0132176722368505
0.01333632531450125
0.013391286462718862
0.013391203555023372
0.013344974097343624
0.013261561461096827
0.013149959946719938
0.013019297427834026
0.012879062265359995
0.012739443628940462
0.01261177595281175
0.012509086109096415
0.012446691542251052
0.012442721650735695
0.012513459309039947
0.012585677268895161
1.4577827856037799e-05
5.2799084641121125e-05
0.00017140298377547585
0.0003618134050694086
0.0006220789602052286
0.0009530381550996268
0.0013572358693026234
0.001837832229756876
0.0023974006372973547
0.0030367150879188533
0.003753599871421472
0.004541973491916342
0.005391239994951421
0.006286178515504854
0.007207432515360607
0.008132608700988697
0.009037873475530638
0.00989982268043508
0.010697329920821933
0.011413084660062628
0.01203460547292452
0.01255463693653128
0.012970962853843793
0.013285766085398132
0.013504711403253091
0.013635931495680848
0.013689063178331663
0.01367443593573744
0.013602466537310813
0.013483275856988606
0.013326517545405089
0.013141395306548226
0.012936841806132564
0.012721836096903322
0.012505843539820875
0.01229937119346779
0.012114631086342977
0.01196632636723007
0.011872049385995297
0.011850439345981928
0.011869253058942745
0.0005665587969485902
0.0008932878196290349
0.001791604297090711
0.0038127486611168296
0.004663123236493221
0.006562985830163626
0.007569590232285409
0.009557234012917581
0.010479382733811717
0.012055400302229862
0.012676408054457777
0.013175669285439898
0.013553528485361035
0.013815575030888977
0.013971198914450126
0.014032126743961723
0.01282416451832177
0.012540568283977163
0.011490850030642909
0.011313714552029591
0.0111740882851898
5.430744811271793e-06
3.585125356336047e-05
0.00013814946829406516
0.00031542975181168885
0.001299874262665403
0.002373233209172131
0.003047343080259761
0.00558608448406192
0.008577652515895155
0.011318707557721346
0.014011132131844198
0.01392103099595566
0.01377400048395747
0.01358120835569474
0.01335271199214848
0.013097576270057185
0.012255157316290741
0.011977247092338756
0.011717900370535063
0.011206295615182972
6.891552799622228e-06
2.8099736277707334e-05
0.00011398775886804287
0.0002769223342210949
0.0005155496484297017
0.0008322344020139821
0.0012324042725500833
0.001722986637423726
0.002310575221070474
0.0029995051959907657
0.0037899067118085665
0.004675956579319524
0.00564463057848814
0.006675297030811238
0.007740421044505868
0.008807455560361912
0.009841715725740288
0.010809755356928543
0.011682605089822789
0.012438263222127176
0.013063045799164888
0.013551706179997859
0.01390651357595454
0.014135649162281836
0.014251320031575244
0.01426793104055195
0.014200544794623734
0.014063742481850265
0.013870904396841846
0.01363386838097878
0.013362896176950584
0.013066874725244364
0.012753690677933367
0.012430735763129353
0.01210552224648053
0.011786405457750497
0.011483436491852498
0.011209342021387403
0.010980708945111387
0.010817994973567339
0.01075412709961476
1.3375000506050691e-05
2.526723836362882e-05
9.601518351646793e-05
0.00024532637473169845
0.00047195273410161965
0.0007788132360955982
0.0011726413785256554
0.0016621402211415416
0.0022559239965841108
0.0029602755193955193
0.0037768172486801217
0.004700329598631657
0.005717102526878638
0.006804278532257753
0.007930580235896326
0.009058572317328262
0.010148223910809948
0.011161140420421581
0.012064597870520588
0.012834558813097011
0.013457162353229309
0.013928616572546838
0.014253801462103012
0.014444098082547678
0.014514980111754575
0.014483791723315115
0.014367969382896894
0.014183806276688294
0.013945741993276495
0.013666094696347759
0.013355130546691565
0.013021371998429435
0.012672068914717578
0.01231378392454089
0.011953069415025957
0.01159724102092203
0.011255246543175251
0.01093873939979966
0.010662907940302807
0.010450872353049367
0.010359980417276345
2.3384735297053708e-05