# vtk DataFile Version 2.0
time_10.vtk
ASCII
DATASET UNSTRUCTURED_GRID
POINTS   4141  float 
9.047379901533953e-05         3.9035602743701054e-17        0.0                           
0.2499999999999997            8.603099978579058e-05         0.0                           
0.5000834985080845            -1.837965921015931e-17        0.0                           
0.7500000000000001            7.772271065154937e-05         0.0                           
1.0000744500131178            -2.2831716706056943e-17       0.0                           
1.2499999999999993            6.707938222352112e-05         0.0                           
1.5000629668622008            -4.4095035709705774e-17       0.0                           
1.75                          5.3870687245278045e-05        0.0                           
2.0000488881904093            6.046230445993591e-17         0.0                           
2.25                          3.807648705449354e-05         0.0                           
2.5000322639044104            -6.888491317529285e-18        0.0                           
2.750000000000001             1.989126041312862e-05         0.0                           
3.000013376760967             3.0392730704915715e-17        0.0                           
3.25                          -9.29302794749519e-18         0.0                           
3.4999923539696467            2.776779797795885e-17         0.0                           
3.75                          -2.3076715626773806e-05       0.0                           
3.9999690267376744            -3.933401098405442e-17        0.0                           
4.25                          -4.7174071150246853e-05       0.0                           
4.499944529197886             1.1991723927388335e-16        0.0                           
4.750000000000001             -7.24354781200929e-05         0.0                           
4.99991890139469              3.4023115789116595e-16        0.0                           
5.25                          -9.87890219005386e-05         0.0                           
5.499892175960026             2.2524290444564354e-16        0.0                           
5.75                          -0.00012631074610484075       0.0                           
5.999864215692224             1.0221700785208077e-17        0.0                           
6.249999999999999             -0.00015526306513664434       0.0                           
6.4998346973085726            -3.293114993855877e-16        0.0                           
6.75                          9.01816575602799e-05          0.0                           
7.000088060917176             6.190005951755162e-06         0.0                           
7.25000672523552              8.321549494892812e-05         0.0                           
7.5000804532700025            7.881769842916235e-06         0.0                           
7.75000849723985              7.417039717063631e-05         0.0                           
8.00007062485913              9.785554227546197e-06         0.0                           
8.250010451022076             6.268236271405368e-05         0.0                           
8.50005827599504              1.180573518979265e-05         0.0                           
8.750012487574157             4.858912921982071e-05         0.0                           
9.000043314679727             1.3842675010439207e-05        0.0                           
9.250014509444764             3.1936767763681814e-05        0.0                           
9.50002585312056              1.5806403520447946e-05        0.0                           
9.750016430696686             1.2955396274372102e-05        0.0                           
10.000006145978745            1.7618904567810267e-05        0.0                           
1.8290143452535813e-05        0.2999917707647966            0.0                           
0.24998423162055355           0.30001947872813783           0.0                           
0.5000200016404449            0.29996861651352097           0.0                           
0.7499605841493122            0.30002101758731237           0.0                           
1.0000215122009892            0.2999441142098286            0.0                           
1.249935688900997             0.30002248307705964           0.0                           
1.5000229643631051            0.29991847610306516           0.0                           
1.7499096901251112            0.3000239337181913            0.0                           
2.0000244284472863            0.29989174592962264           0.0                           
2.249882575341614             0.3000254553200834            0.0                           
2.50002599435663              0.29986378825672705           0.0                           
2.7498541452635656            0.30002713994515195           0.0                           
3.000027752379325             0.29983427855835837           0.0                           
3.249824016856598             0.30002906941011376           0.0                           
3.500011353260198             0.3000871944624127            0.0                           
3.750084888298165             0.3000134333836024            0.0                           
4.000014565222648             0.30007960984164944           0.0                           
4.250076602904772             0.30001698507054786           0.0                           
4.500018259809068             0.30006978411017216           0.0                           
4.750065952019688             0.3000209024413422            0.0                           
5.00002225517521              0.30005741173317346           0.0                           
5.250052699175519             0.3000249859773346            0.0                           
5.5000263497460455            0.30004239714983016           0.0                           
5.750036817644767             0.3000290413601743            0.0                           
6.000030357863087             0.3000248392970305            0.0                           
6.250018457127847             0.3000329114582226            0.0                           
6.500034147880348             0.30000492997463407           0.0                           
6.74999782421157              0.30003660453495196           0.0                           
7.000037794976877             0.29998299307026116           0.0                           
7.249975284398541             0.30003999697481715           0.0                           
7.50004103394084              0.299959363405605             0.0                           
7.749951183371486             0.30004303559268414           0.0                           
8.000044010661432             0.29993443382728924           0.0                           
8.249925876199905             0.30004593606361163           0.0                           
8.500046898521694             0.29990840752932696           0.0                           
8.749899494255194             0.30004885616259025           0.0                           
9.00004986531663              0.2998812856453865            0.0                           
9.249871973113315             0.3000519794113854            0.0                           
9.500053097913462             0.2998528703245384            0.0                           
9.749843048721333             0.3000554888982778            0.0                           
10.000056772171666            0.29982277181098804           0.0                           
8.784197887542187e-05         0.6000169796172156            0.0                           
0.25001849429377304           0.6000834587614157            0.0                           
0.5000809498937173            0.6000218099284768            0.0                           
0.750023595366813             0.6000752025698546            0.0                           
1.0000719329172179            0.6000273731350666            0.0                           
1.2500293436934053            0.6000645429911582            0.0                           
1.5000604073766204            0.6000333910345456            0.0                           
1.75003544491089              0.6000512367917048            0.0                           
2.000046202367685             0.6000395582346246            0.0                           
2.25004159755117              0.6000352538693557            0.0                           
2.5000293528278306            0.6000455983565265            0.0                           
2.7500475469780112            0.6000167379883986            0.0                           
3.0000100426202123            0.6000513295477741            0.0                           
3.250053166640979             0.5999959525425221            0.0                           
3.499988594660433             0.60005670960017              0.0                           
3.750058391907141             0.5999733097873902            0.0                           
3.9999654051428877            0.6000615753757481            0.0                           
4.250063095750801             0.5999491402827667            0.0                           
4.499940804622694             0.6000660416155186            0.0                           
4.750067484519274             0.59992376842599              0.0                           
4.999915076804032             0.6000703567210235            0.0                           
5.250071806121431             0.599897349545537             0.0                           
5.499888307266145             0.600074784458897             0.0                           
5.750076334973534             0.5998698289236883            0.0                           
5.999860370429513             0.600079611408083             0.0                           
6.2500813570827916            0.5998409402129368            0.0                           
[...]
POINT_DATA  4141
SCALARS Con float 1
LOOKUP_TABLE default
0.0010366816804460645
0.0011383901120068853
0.0013403495235609951
0.0015776808840511716
0.0018472783340411504
0.0021501446477978936
0.0024870778116565444
0.0028583222525259038
0.003263515856522076
0.0037016802402583524
0.004171235134293804
0.004670033618231232
0.005195413914285878
0.005744260424659867
0.0063130624360987885
0.006897949504254536
0.007494703003510506
0.008098697764919015
0.008706423001694327
0.00932474732944753
0.010029849710251306
0.01074328775498521
0.011385901733273718
0.011997180632189713
0.012613189618944098
0.0132318866129937
0.013853979859779184
0.014480761712869168
0.015114584940718349
0.015758647835967497
0.016416882062940976
0.017093852860091425
0.017794673468544762
0.01852492421251098
0.019290571901387752
0.020097886188179478
0.020953344333976706
0.021863415670965523
0.022832654694996193
0.023835977708713343
0.024412490300464613
0.0010574570429916605
0.0011617334766262427
0.001367961257905516
0.0016099217513390392
0.0018845197728241257
0.002192675245656759
0.0025351016797930943
0.002911953484941614
0.0033227775366226173
0.0037665077243522593
0.004241484630569919
0.004745498003204521
0.00527585009148943
0.0058294382511229
0.0064028581775173446
0.0069925492118385665
0.007595030141234379
0.008207743020393406
0.008830277735100275
0.009481386959668221
0.010145563798212817
0.010801076048800838
0.011440696170979689
0.012074978188136465
0.012699778844383109
0.013323013184452158
0.01394723151636593
0.01457509919060108
0.015209611310533179
0.015854353054097402
0.016513513466154834
0.017191853169545936
0.01789464793771974
0.018627621827899406
0.01939687330163455
0.020208794630666757
0.02106997722844663
0.021986997487148375
0.02296446362119135
0.023977640228946953
0.024560482789415927
0.0010473763427818247
0.0011514981862213135
0.0013579818596431972
0.0016007796076571445
0.0018767363422818666
0.002186754134862266
0.002531515710300271
0.002911140706994542
0.0033251400671670227
0.003772415102677265
0.004251284021596297
0.004759536141463289
0.0052945165849142715
0.00585324898476726
0.006432617384256245
0.0070296504299699365
0.007642070013361768
0.008268900195929501
0.008913506676638821
0.00955667266732021
0.010173489346969235
0.01079430039185422
0.01144049760060665
0.012082728133897859
0.012717077038005679
0.01334505524669459
0.013970768315945221
0.014597719571764521
0.015229561882108342
0.015870295455832215
0.01652439623225733
0.017196844146352436
0.017893105469559835
0.018619088583195234
0.01938108387213374
0.02018569159674509
0.02103973179804764
0.021950025718964067
0.022921443596629273
0.02392920283421502
0.024508945804927195
0.001029768126822153
0.0011338808730281826
0.0013408590506984862
0.0015850190989979678
0.0018632096550577344
0.0021762911256031814
0.00252489366298176
0.002909075364953549
0.003328281135963919
0.0037813462711193584
0.004266528837201711
0.0047815718344651195
0.005323798218670808
0.005890243893550078
0.006477832782312168
0.007083595813029607
0.007704778084868752
0.00833880359900835
0.00897767053178644
0.00961123763864828
0.010238878569525878
0.01086480715369539
0.011494728822784519
0.01213031160540222
0.01276264341856426
0.013389875326473032
0.014013442825540318
0.01463638188602482
0.015262336784275247
0.015895480959337512
0.016540504160622103
0.017202614353787976
0.017887518980622994
0.018601387643850796
0.019350799261518226
0.020142675385783727
0.020984192034071817
0.021882557774949043
0.02284304573434182
0.02384147403275903
0.02441667706636026
0.0010048957134995429
0.0011089933264219899
0.0013167128023322749
0.001562833140475134
0.0018441986889293238
0.002161612120486259
0.0025156253183029067
0.0029062043386000806
0.0033326915444787204
0.003793811754529541
0.004287706055728718
0.00481199299281957
0.005363856299813642
0.005940153493498654
0.006537527722183206
0.007152455318884131
0.0077811358048883155
0.008418479441284378
0.009058547326259006
0.009696357207787895
0.010329398463323564
0.010959337145557043
0.01158851113964093
0.012216515654230086
0.012842108032945988
0.013463237121412544
0.014080236980460903
0.014695189990937217
0.015311369909762222
0.01593287394523914
0.016564485344548577
0.017211602615401438
0.017880191255340374
0.018576735729350636
0.019308184524057134
0.020081884072874506
0.020905490810353575
0.021786749516043116
0.022731543407676247
0.02371667072222602
0.024285481858996004
0.0009725594335164745
0.0010766729958805908
0.0012854092562005726
0.0015341210265988078
0.001819639144868082
0.0021426863717902023
0.0025037093195963366
0.002902549396014121
0.003338406996171748
0.0038098474970975683
0.004314832182843036
0.004850772111933261
0.005414600487577743
0.006002852442417059
0.0066117265079834895
0.00723709206811821
0.00787434605701776
0.00851849626528007
0.00916455085511115
0.009808366825029401
0.010447664105505806
0.011081786453385822
0.011710880032716493
0.012334984276605895
0.012953428187664082
0.01356588233823519
0.014172779422858519
0.014775900698613176
0.015378234262753516
0.015983773494522374
0.016597353823126552
0.01722454998626986
0.017871602892473762
0.018545358652394907
0.019253208526712643
0.020003022372582356
0.02080306321769647
0.021661772598246806
0.022585861544512045
0.023553376188973244
0.024113600421081252
0.0009325786775107661
0.001036752647990516
0.0012468166516060683
0.001498789952744219
0.001789477779943732
0.002119499568330958
0.002489169100785814
0.0028981711581503905
0.0033455260745144672
0.003829593306245171
0.004348097102782674
0.0048981718391903
0.00547642239572907
0.006078990205475336
0.006701612813591457
0.007339663523048042
0.007988236997837992
0.008642331569451616
0.00929723056238673
0.009949003441617765
0.010594829440653097
0.01123303890674356
0.011862759972737879
0.01248348450958082
0.013094982263777456
0.013697382518915616
0.014291584950035536
0.014879466755734918
0.015463996437397945
0.016049174928645205
0.01663993999300106
0.017242075200467923
0.01786213499506018
0.01850738034153464
0.019185718142478957
0.01990563751006972
0.020676130358963592
0.021506488034171718
0.02240442294707534
0.023349497502483434
0.023898688056022768
0.0008848230079232481
0.0009891133005850042
0.0012008427629823157
0.0014567814452823898
0.0017536922247539674
0.0020920667662424294
0.002472059960269938
0.0028931713893094674
0.0033542083592386336
0.0038532851711486032
0.00438784264706479
0.004954686700208947
0.005550043743863633
0.006169629504665725
0.006808729031877919
0.007462301100651804
0.008125126864353556
0.008792037788647537
0.009458213591750269
0.010119486587608166
0.010772562854580416
0.0114150646033762
0.012045428580444849
0.012662765975472473
0.013266776402491812
0.013857821414695463
0.014437049122926692
0.015006550723160178
0.015569435410786005
0.01612984261980726
0.016692900111254478
0.0172646644488454
0.01785206049718121
0.018462825218100696
0.01910545423914308
0.019789146607037542
0.02052373583469452
0.02131949903862701
0.02218531755184018
0.023102586108631085
0.023637984712341912
0.0008292703124391632
0.0009337330802093632
0.001147474689766233
0.0014080991754293031
0.0017123066204554405
0.002060436358996023
0.0024524617658037463
0.002887674728620338
0.0033646445256460228
0.0038812104905249817
0.004434494412825265
0.005020933770390634
0.005636336955505435
0.006275961503660268
0.00693461909315363
0.007606813947474229
0.008286924903010851
0.00896943124323792
0.009649165236494537
0.010321551642136427
0.010982783927257095
0.011629911436088908
0.012260845175216015
0.012874325198903736
0.01346990770147109
0.014047989056353984
0.014609874905049865
0.015157850802921568
0.01569523601638522
0.01622639866756128
0.01675674056415056
0.0172926625167406
0.017841523177576826
0.01841159808793554
0.01901204034539265
0.019652840218753045
0.02034477226225954
0.02109922343765469
0.021926409150179457
0.02280989207064214
0.023328375651044016
0.0007660739786397667
0.0008707468988614395
0.001086823401442569
0.0013528377156489706
0.0016654040191810917
0.002024686198059586
0.0024304593273575493
0.0028817939776001186
0.0033770067578122484
0.003913642598705046
0.004488477458915876
0.005097545404983808
0.005736194247135555
0.006399173443212353
0.007080757588240937
0.007774908292151261
0.008475473397593412
0.009176415361657883
0.009872049591281693
0.010557265348018735
0.011227702762018626
0.011879870760317122
0.012511209933929603
0.01312012061544082
0.01370597905250905
0.014269161053826782
0.014811073472524678
0.015334188425806406
0.015842066717833402
0.016339365159636975
0.016831826870115515
0.017326261015361798
0.017830518483735545
0.01835346890697779
0.018904980595211004
0.019495901316138355
0.020138028946240533
0.020843967928279843
0.021625420424470937
0.02246846746342789
0.02296650311513353
0.0006956415143752049
0.0008005145870682623
0.0010191725514551624
0.0012912105844652972
0.0016131332783714493
0.001984909646183086
0.0024061087617543615
0.002875578590720873
0.0033913816255438226
0.003950760576020199
0.0045501262831823715
0.0051850750402427145
0.005850442241162791
0.006540397440363947
0.007248583325795462
0.007968297441446552
0.008692710381542994
0.009415107662520612
0.01012913650182201
0.010829035715845833
0.011509829508097452
0.01216747400910433
0.012798956276001472
0.0134023544052171
0.01397687214368787
0.014522858992953625
0.015041823125022086
0.01553643792010733
0.016010541902344588
0.016469131145411854
0.016918346361956705
0.01736545854994483
0.01781885795221353
0.01828804964864989
0.018783656782812765
0.019317429063943462
0.01990224549237356
0.020552010448820605
0.021280043492368735
0.02207530086683077
0.02254891420979356
0.0006187230841069667
0.0007236961479390065
0.0009450292121167665
0.0012235749681975942
0.0015557075190140478
0.001941188635118641
0.002379387198696506
0.0028689443461234637
0.003407684279586363
0.003992553830006432
0.004619587343552208
0.005283907870504435
0.005979774561528988
0.006700682772508625
0.0074395186519604405
0.008188764325258788
0.00894074349160434
0.009687891390763715
0.010423028904976735
0.011139619677799055
0.011831992168133335
0.012495515071970071
0.013126722523876028
0.013723392921590678
0.014284589583072103
0.014810673308950906
0.015303295775314347
0.015765381001385043
0.016201100584781674
0.016615847670012077
0.017016214583166676
0.017409979187542595
0.017806104149746465
0.01821475178304242
0.018647314670308376
0.019116458996441262
0.019636169163380277
0.020221696501638114
0.020888075053026398
0.02162748942245108
0.022072252321705406
0.0005365060054863207
0.0006413302210728543
0.0008651726455794805
0.0011504492166548384
0.0014933903990171072
0.0018935501005007537
0.002350122397562885
0.0028615809097484175
0.0034255505754337
0.004038707298842853
0.0046967076593732926
0.005394164607044954
0.006124682974818097
0.006880963372619141
0.007654976034203924
0.008438198235567325
0.009221901187238023
0.00999746593133237
0.010756704060359737
0.011492159032095746
0.01219736733531078
0.012867065447271146
0.01349733631737521
0.014085696832433625
0.014631133546921783
0.015134097586807284
0.015596471103589193
0.016021517325562853
0.016413825500839307
0.016779260427773297
0.01712492515759203
0.017459143664979068
0.0177914686494435
0.018132717084029137
0.018495033292362295
0.018891975611991175
0.019338614458727033
0.01985154837030395
0.020447576851710808
0.02112244876063602
0.02153349353049661
0.00045070790168870976
0.0005549087004969761
0.0007806950006141118
0.0010725179983839715
0.0014264659885916875
0.0018419024134796365
0.0023178992303127875
0.0028528340775629208
0.003444203370313623
0.0040884625900615935
0.004780903462801286
0.005515590891155858
0.00628537928329463
0.00708201997945322
0.007896361530728277
0.008718633644988746
0.009538795402188788
0.01034692043862167
0.011133587652935767
0.011890246286265478
0.012609529022974256
0.013285494746303172
0.013913792352293682
0.014491746571776066
0.015018374781854018
0.01549434927884327
0.015921922438218772
0.016304832762218547
0.016648208725666726
0.01695848523523198
0.0172433447191644
0.01751169218771067
0.017773670445583558
0.018040718758272123
0.018325674843150987
0.018642915730588627
0.019008523274991744
0.019440385430600303
0.019957058968672742
0.02055815955779547
0.02093022833817025
0.00036365504178431933
0.0004664359104732768
0.0006930250215027207
0.0009906190055536477
0.0013551890641052544
0.0017859504024051395
0.0022819422636557317
0.0028415616364574365
0.003462291182428203
0.004140452676764065
0.0048710064239525916
0.005647430855080484
0.006461709933004086
0.007304444750440537
0.008165091665962907
0.009032314088992311
0.009894420789136174
0.010739852719418776
0.01155767487624596
0.01233803066093353
0.013072523045719786
0.013754498250847241
0.014379221204579948
0.014943945389863439
0.015447890740335828
0.015892151035802427
0.016279556017933256
0.016614514205244783
0.01690286007602829
0.017151725902072184
0.01736945379910911
0.017565559486378772
0.017750754778472284
0.01793703268616712
0.01813781566272997
0.018368163505334302
0.01864502677726027
0.018987453523026804
0.019415682171788
0.019933446227422894
0.02026098391379648
0.00027832568880037915
0.0003784548245575837
0.0006039228290639235
0.0009057064856559981
0.0012797162695625329
0.0017250927342602478
0.0022409785354554727
0.0028259656291376688
0.003477701251740032
0.004192511942395941
0.004965089818005087
0.005788289190171437
0.006653071518162511
0.0075486222986183744
0.008462643820320465
0.00938180608484197
0.010292317018469062
0.011180557406779411
0.01203371795243082
0.012840377723486352
0.01359097418299717
0.014278132381434484
0.014896841335353475
0.015444484982971038
0.01592075085608765
0.01632744961716529
0.01666828296762968
0.016948596623987677
0.017175150681470134
0.017355933305182113
0.017500036597905083
0.017617606986583025
0.01771987704322004
0.017819281818457995
0.017929660414328016
0.01806654263643024
0.018247512549780045
0.018492568196010733
0.01882347189195557
0.0192482773313495
0.01952558161785914
0.00019832517003119066
0.000294014927040549
0.0005154342318515634
0.0008187902301435156
0.0012000290825080484
0.0016583141409212637
0.002193088912912114
0.002803409520297423
0.0034873561210592556
0.004241470708977329
0.005060283934311146
0.005935992534754568
0.0068583416001284595
0.007814746954139718
0.008790666158261884
0.009770194081481805
0.010736827025981398
0.011674314426570694
0.012567505170368812
0.013403099078549195
0.014170232294529067
0.0148608535135952
0.015469879995432725
0.015995151548953743
0.016437222762238215
0.016799046169171588
0.017085602252439408
0.01730352798034007
0.017460786331901356
0.017566408464047598
0.017630328855397913
0.017663324716288304
0.017677063780369165
0.017684260403726032
0.017698938642204943
0.017736802232825418
0.017815718771781477
0.0179562722980783
0.018181556479407692
0.018504069197624574
0.01872548492385847
0.00012776559805790402
0.0002165527952250573
0.00042978727255879226
0.000730879301373076
0.0011158755682492455
0.0015840779091579255
0.002135560453767064
0.002770240387133246
0.003487015973530767
0.004282955296320273
0.005152599587279391
0.006087468449118859
0.007075845638104673
0.008102902904846053
0.009151180989252283
0.010201396714763937
0.011233494300208225
0.01222781789599572
0.013166262776349174
0.014033269859391842
0.014816559179936458
0.015507546275186105
0.016101436546233142
0.01659703807201953
0.01699636351807059
0.017304105900840326
0.017527071360375936
0.017673640441582286
0.017753311635264342
0.017776362360564745
0.017753646001042105
0.01769653096278782
0.01761697944072326
0.01752775946489299
0.01744278297047607
0.01737756651970302
0.017349813508936326
0.017380141509374933
0.01749238900143108
0.0177039974866704
0.017864236473058008
7.38546603384958e-05
0.0001496452385130118
0.0003493375349302112
0.0006429759015018898
0.0010266768205255813
0.0015002170613040498
0.0020647770503325843
0.002721665540201679
0.003471136272571227
0.004311235982631762
0.00523679436709471
0.006238671952076483
0.007303390736743115
0.008413243922168776
0.009546927697421962
0.0106806587287557
0.011789656132741192
0.012849796167469991
0.013839214771483047
0.014739646043262333
0.01553734233403352
0.01622350405088596
0.016794234245307477
0.017250101595600198
0.01759543705980789
0.017837499547923102
0.01798563391898754
0.018050516706149582
0.018043553004437596
0.017976457683281613
0.017861030485773123
0.017709118922157104
0.017532755036846592
0.017344449669673297
0.01715763047796452
0.016987211896621647
0.01685029558818688
0.016766934010597093
0.016760815240995677
0.016853199310250342
0.016947241226885068
3.564200444280854e-05
9.693244833598085e-05
0.00027649225189726334
0.0005558770604881691
0.000931526304695122
0.0014041339200567243
0.0019765203455062276
0.0026520953305134523
0.003433213920155338
0.004319571028372281
0.0053067374402326955
0.006385017075165444
0.007538817527611163
0.008746705338516677
0.009982238355786915
0.011215542481020012
0.012415450760119202
0.013551898609322701
0.014598206090671254
0.015532907381503444
0.016340893033717243
0.017013782670013956
0.01754959105713123
0.017951858407003647
0.018228463519954455
0.018390337001096616
0.018450250398894148
0.018421802415639236
0.018318665965490616
0.018154114735689866
0.017940816362412338
0.017690863465310937
0.017416009307889387
0.01712807930735274
0.016839538340937824
0.016564204843181166
0.016318101098260002
0.016120460682056297
0.01599421605937124
0.01596369074383739
0.015986745771488387
0.0008539433658423227
0.0013236551306068341
0.0025974914909598816
0.00540794975772838
0.006573427465683279
0.009147836312723232
0.010497118084666466
0.013134522603198666
0.014346576167369687
0.016400680539777234
0.017203053880853098
0.017844009023415843
0.018325117432348197
0.01865447259622625
0.018844840308660408
0.018911813914040947
0.017258492165346327
0.016879361623996447
0.015480878537930783
0.015244643528569909
0.015055298400931203
1.585571651619438e-05
6.647776415079296e-05
0.0002252550459431975
0.0004884686353895332
0.0019027666606667966
0.003412944907684707
0.004350942213403189
0.00782887078330543
0.011839032766661142
0.015443379465675726
0.018872203373981905
0.01874278739219699
0.018539472378825132
0.018276840597824168
0.017968036581545697
0.017624929141507248
0.016498545581006455
0.016128283957851413
0.015783079141667183
0.015100071084692569
1.2099693976828274e-05
4.995934086411602e-05
0.00018691781691316644
0.0004313843211348171
0.0007809327591623859
0.0012384928472266492
0.0018108673026407745
0.002506495594254445
0.0033328940087482013
0.004294053155760321
0.005387911116342791
0.006604219668797259
0.007923198505591004
0.009315381548667838
0.010742923965690128
0.01216236479231518
0.013528491499728616
0.014798645759222686
0.015936673277401763
0.01691581551124051
0.01772013382736452
0.018344424287348147
0.01879289720931466
0.019077074326073643
0.01921338807188521
0.01922088688801614
0.01911931680572523
0.018927709829153302
0.018663498279523842
0.01834210209177297
0.017976902307449746
0.01757951025170601
0.017160255755447582
0.016728841464494264
0.016295137226512862
0.015870110503933072
0.015466922674671743
0.015102182404271965
0.01479746641509013
0.014579302365949096
0.014492425314273754
1.6337176566319833e-05
4.1573465951517445e-05
0.00015814051638114376
0.0003845943032829654
0.0007187114887011442
0.001164271862025428
0.0017299303728460565
0.0024265492307918362
0.0032643035400018493
0.004249617284427949
0.005382111665996984
0.006651912984290605
0.008037836200981245
0.009506998568482373
0.011016271378723625
0.01251562309131915
0.013952923218067684
0.01527933371877592
0.016454209530814296
0.017448566712480712
0.018246599814751185
0.01884525285888831
0.019252273561421028
0.0194833941096807
0.019559282663924347
0.019502765599856583
0.019336620347312563
0.019082050451840783
0.018757816989092575
0.01837992276421475
0.01796171886335813
0.01751431149432192
0.017047174377891744
0.016568905944676218
0.016088102691088485
0.015614354949914375
0.015159361004111057
0.014738303866786411
0.014370878365272765
0.014087188401625322
0.013964560961667875
2.6236084237054626e-05
3.874409433346808e-05
0.00013406187343153157
0.00034102901000931273
0.0006578776437267947
0.0010893302199472394