# vtk DataFile Version 2.0
time_10.vtk
ASCII
DATASET UNSTRUCTURED_GRID
POINTS   4141  float 
1.1492320360887254e-05        -5.547644010273912e-16        0.0                           
0.25                          1.0864530203805319e-05        0.0                           
0.5000105164643199            -1.3673294947167927e-17       0.0                           
0.75                          9.740859142249058e-06         0.0                           
1.0000093096196367            1.0217385451554492e-17        0.0                           
1.2500000000000009            8.353243843413612e-06         0.0                           
1.5000078262585417            1.3142815851301607e-17        0.0                           
1.75                          6.672544191453159e-06         0.0                           
2.000006045936267             2.078059334408052e-17         0.0                           
2.25                          4.695896033565455e-06         0.0                           
2.5000039744722575            -6.544785483501678e-17        0.0                           
2.749999999999997             2.4465875229090763e-06        0.0                           
3.0000016452213414            -2.637842385898875e-17        0.0                           
3.25                          8.78213352644016e-17          0.0                           
3.499999079775128             -2.7631516884431476e-17       0.0                           
3.750000000000001             -2.7788769180856203e-06       0.0                           
3.9999962721994926            -1.2702226644844169e-17       0.0                           
4.25                          -5.66764160872025e-06         0.0                           
4.499993342764036             -1.214374873455566e-17        0.0                           
4.75                          -8.672534479765375e-06        0.0                           
4.999990302536836             3.321489948917831e-16         0.0                           
5.25                          -1.1781807697925792e-05       0.0                           
5.4999871579586035            6.659974406005113e-17         0.0                           
5.750000000000002             -1.5002929255693354e-05       0.0                           
5.999983893790513             1.468703648221865e-16         0.0                           
6.25                          -1.836717630552593e-05        0.0                           
6.499980470853024             3.551481247062751e-16         0.0                           
6.75                          1.1461104513277602e-05        0.0                           
7.000011158215789             8.751679199270133e-07         0.0                           
7.2500009332536965            1.0486390860622457e-05        0.0                           
7.500010112742788             1.060240808900566e-06         0.0                           
7.750001128418868             9.279991252955344e-06         0.0                           
8.00000881775054              1.2720188030424984e-06        0.0                           
8.250001346515083             7.79607620063049e-06          0.0                           
8.500007235445715             1.498525057376946e-06         0.0                           
8.750001575102253             6.014067935040196e-06         0.0                           
9.00000535405869              1.7271816289987484e-06        0.0                           
9.250001801865636             3.939457829489776e-06         0.0                           
9.500003187296295             1.9466588743271098e-06        0.0                           
9.750002016060765             1.6005793204388653e-06        0.0                           
10.000000767198866            2.1473481513503536e-06        0.0                           
2.219704543969896e-06         0.2999990188859359            0.0                           
0.2499981073722846            0.30000234758761246           0.0                           
0.5000024038250948            0.2999962277642645            0.0                           
0.749995264632802             0.3000025119002868            0.0                           
1.0000025639592616            0.2999932975716924            0.0                           
1.2499922953405134            0.3000026652296182            0.0                           
1.5000027150803332            0.2999902561751603            0.0                           
1.7499892195785234            0.30000281512218435           0.0                           
2.000002866160489             0.29998711108468007           0.0                           
2.249986037778275             0.30000297249986607           0.0                           
2.5000030287024866            0.2999838472267515            0.0                           
2.7499827267568637            0.3000031493518417            0.0                           
3.0000032146012137            0.2999804253032314            0.0                           
3.2499792395501212            0.30000335666591793           0.0                           
3.5000016396464426            0.3000110658125108            0.0                           
3.75001074289929              0.30000186434920495           0.0                           
4.000001988217873             0.3000100232381565            0.0                           
4.250009622140342             0.3000022556028586            0.0                           
4.500002397466545             0.3000087286670246            0.0                           
4.750008233742118             0.30000269296621973           0.0                           
5.000002844692825             0.30000714364016073           0.0                           
5.25000654791185              0.3000031513568392            0.0                           
5.50000330448019              0.3000052560996977            0.0                           
5.750004561278137             0.30000360615751953           0.0                           
6.000003753263858             0.3000030786356206            0.0                           
6.250002293050858             0.30000403726043506           0.0                           
6.500004173836092             0.30000063737633526           0.0                           
6.749999771951248             0.3000044420422038            0.0                           
7.000004570702605             0.2999979740626424            0.0                           
7.249997044084444             0.3000048073550152            0.0                           
7.500004917888129             0.2999951319637323            0.0                           
7.7499941536260675            0.3000051291316436            0.0                           
8.000005231059262             0.2999921585883434            0.0                           
8.249991143454807             0.3000054308262439            0.0                           
8.500005530180749             0.29998907977197975           0.0                           
8.749988031069245             0.3000057320211697            0.0                           
9.00000583628981              0.2999858972431526            0.0                           
9.249984810095162             0.3000060560740275            0.0                           
9.500006173379944             0.2999825879373944            0.0                           
9.749981449086977             0.3000064270105929            0.0                           
10.00000656481713             0.2999791042884838            0.0                           
1.1211070286604162e-05        0.6000024531961452            0.0                           
0.2500026160169687            0.6000105907268328            0.0                           
0.5000102456314982            0.6000029775583493            0.0                           
0.7500031743630684            0.6000094736756721            0.0                           
1.0000090428981065            0.6000035940315133            0.0                           
1.250003814171287             0.6000080843764449            0.0                           
1.5000075547077418            0.6000042678731551            0.0                           
1.7500044985381236            0.6000063923121629            0.0                           
2.0000057596753735            0.6000049605291832            0.0                           
2.2500051892848774            0.6000043939615073            0.0                           
2.5000036625941897            0.6000056367502413            0.0                           
2.7500058537386027            0.6000021083105194            0.0                           
3.000001287905347             0.600006272200309             0.0                           
3.2500064737150627            0.5999995700022865            0.0                           
3.4999986769063742            0.6000068587914792            0.0                           
3.7500070400470094            0.5999968299919781            0.0                           
3.999995879162632             0.6000073800514519            0.0                           
4.2500075408743445            0.5999939312281216            0.0                           
4.499992937106583             0.6000078495419388            0.0                           
4.750007999468138             0.5999909137459686            0.0                           
4.999989885675459             0.6000082962154981            0.0                           
5.250008445545442             0.5999877973539518            0.0                           
5.499986736382956             0.6000087528090736            0.0                           
5.750008913509263             0.599984576561308             0.0                           
5.999983475025918             0.6000092559241291            0.0                           
6.250009440270116             0.5999812196400487            0.0                           
[...]
POINT_DATA  4141
SCALARS Con float 1
LOOKUP_TABLE default
2.1536972350613816e-05
2.3081604312285463e-05
2.6137567500194146e-05
2.970150962916217e-05
3.371953466765653e-05
3.820157036479558e-05
4.315503570315549e-05
4.8579526976489684e-05
5.446602591071583e-05
6.079674901999816e-05
6.754534905173937e-05
7.4677433668756e-05
8.215134939001767e-05
8.99191400177914e-05
9.792752617233259e-05
0.00010611863950866838
0.00011443038998253604
0.00012279596983392227
0.0001311596673248719
0.0001395951058020329
0.00014902550086982367
0.00015847116212293715
0.00016697724860910415
0.00017506272460034465
0.0001831351289011191
0.0001911706335289267
0.00019918110652122298
0.00020718861811630117
0.0002152302260908592
0.00022335524856407888
0.00023162382894344432
0.00024010571144572813
0.0002488791837620107
0.00025803012126755125
0.0002676510336003043
0.00027784007297048047
0.0002886998331163744
0.0003003341606241132
0.00031281958836977715
0.00032581882667101405
0.00033330528015044185
2.1855774619629796e-05
2.3435898231145416e-05
2.6553079803012693e-05
3.018288750770944e-05
3.427156364036726e-05
3.882777383385829e-05
4.385768069204618e-05
4.935955281163513e-05
5.53230370931002e-05
6.172906452626647e-05
6.85501227532416e-05
7.575086922493245e-05
8.328905916214471e-05
9.111676633442048e-05
9.918189801237263e-05
0.00010743023191859825
0.00011580854559410776
0.00012427465594160578
0.00013281375291753644
0.0001416329424602761
0.0001505407169761824
0.00015929278314058995
0.00016778540756216587
0.00017612991603281343
0.00018429353589738255
0.0001923702457791276
0.00020039446800808374
0.00020840446739408283
0.00021644494383885992
0.0002245698832274192
0.00023284259367671774
0.00024133525181567643
0.00025012819315228704
0.00025930911019225944
0.00026897218233576245
0.0002792171198596847
0.0002901479688579125
0.0003018699527189555
0.000314460456672615
0.0003275878086362202
0.00033515677952793854
2.16740052259584e-05
2.3253693889264402e-05
2.6377841681889887e-05
3.0023781497463585e-05
3.413649875223028e-05
3.8724172237894375e-05
4.379230087203215e-05
4.9338441025200105e-05
5.535151156124413e-05
6.181175612393683e-05
6.869109999987692e-05
7.595390322861394e-05
8.355814315872615e-05
9.14571034888141e-05
9.960181210638343e-05
0.0001079447126374949
0.00011644646160960642
0.0001250837900833235
0.0001338853888090295
0.0001426208693728841
0.00015097457506857976
0.00015930214205788995
0.0001678675024108465
0.00017630898913348572
0.00018457889130315218
0.00019270269896950697
0.000200734380458172
0.0002087226143170306
0.00021671997534745933
0.000224785370128428
0.00023298549414225905
0.0002413950954542154
0.0002500967343288963
0.0002591802429054209
0.00026874202793790057
0.00027888423162413585
0.00028971361123715153
0.000301338416927569
0.00031383980292678
0.00032688785408927455
0.0003344140124902488
2.13592203236522e-05
2.2941625778603496e-05
2.6078831414511815e-05
2.9751543794696654e-05
3.3904323999478416e-05
3.854436172512618e-05
4.367604271133518e-05
4.929569239683227e-05
5.539094006805057e-05
6.194073808640626e-05
6.891579209541976e-05
7.627941248637228e-05
8.398882046063609e-05
9.199696389293521e-05
0.00010025488240654298
0.00010871464165545718
0.00011733106878341118
0.00012606192704147834
0.00013480309270045565
0.00014342281257139213
0.00015190865251816466
0.00016030292464305865
0.00016866617414296176
0.00017702006894266775
0.00018525774370302018
0.00019336055592893587
0.00020135220966484434
0.0002092765780770976
0.0002171866004948864
0.0002251434859901818
0.00023321660084695909
0.00024148346778020565
0.0002500295347059358
0.00025894774094786956
0.0002683379341056283
0.0002783061297277155
0.0002889634917311051
0.0003004233087147521
0.00031277242054991185
0.00032569028461776887
0.00033315300434556627
2.0914133229170775e-05
2.2500528960830983e-05
2.5656985841648925e-05
2.9368231976666633e-05
3.357806760827306e-05
3.829232187089172e-05
4.351375780099085e-05
4.9236901803702976e-05
5.544744965269135e-05
6.212232353852304e-05
6.923012315154032e-05
7.67319751451374e-05
8.458276350557392e-05
9.273267549040194e-05
0.0001011288555679113
0.00010971638168930144
0.00011843748560903027
0.00012722017839460697
0.00013598303186694658
0.0001446580527203409
0.0001532067392116742
0.0001616432307287198
0.00016999183543135407
0.000178244825088065
0.0001863887132498471
0.00019440260342621447
0.00020229669780291948
0.0002101042041653673
0.0002178742378724645
0.00022566752887359775
0.0002335548274240476
0.00024161607666130895
0.00024993986850187976
0.0002586229206702612
0.00026776951408296896
0.00027749082777802026
0.0002879040078650065
0.00029912924546144693
0.00031126157093749624
0.0003239932684961406
0.0003313641678546776
2.0334712022381134e-05
2.1926991189394725e-05
2.5109587487448124e-05
2.8871881069157606e-05
3.3156574389097794e-05
3.796766780576633e-05
4.330577600022279e-05
4.916302922744147e-05
5.5522509057270554e-05
6.235831053164055e-05
6.963596951473475e-05
7.731323763150457e-05
8.534115274141852e-05
9.366527348342253e-05
0.00010222677999871622
0.00011096301124603339
0.00011980625005010794
0.0001286849906589363
0.00013752894391131086
0.0001462789861143299
0.00015490039064561533
0.00016337987693877242
0.00017171580004049568
0.000179907443648177
0.00018794761123497458
0.00019583623898575156
0.00020358494986032227
0.0002112237036187754
0.00021879877848360232
0.00022637016384561046
0.00023400959652557598
0.00024179934227327754
0.00024983138525695595
0.00025820678909122707
0.0002670351350438028
0.00027643391772963705
0.000286527719513793
0.0002974454337318526
0.0003092924999108517
0.00032177794633986447
0.0003290268940621432
1.9616855633794292e-05
2.1217289140884538e-05
2.4433747694856395e-05
2.826051964311357e-05
3.26388071103193e-05
3.757029232367097e-05
4.3052904143361715e-05
4.907578422455502e-05
5.561873300082754e-05
6.265224803914929e-05
7.013790420009396e-05
7.802904360891088e-05
8.627172921732487e-05
9.480585281853093e-05
0.00010356623717793717
0.00011248355816260533
0.00012148577516884213
0.0001305006726424132
0.00013946065176228766
0.00014830923542688196
0.00015700527211541128
0.00016552379836930894
0.00017385172393823297
0.0001819824561746219
0.00018991508245506814
0.00019765543488798554
0.00020522113642876562
0.0002126437682050193
0.0002199698945080934
0.00022726010898989536
0.00023458776579964808
0.00024203787489351269
0.0002497062685983361
0.0002576989645657282
0.0002661316506602996
0.00027512918279209146
0.00028482491447108185
0.0002953581121882452
0.0003068467988355648
0.00031902079284013013
0.00032611454502742994
1.875687284346153e-05
2.0368122260370656e-05
2.36269667262146e-05
2.753256645607405e-05
3.2024147797185925e-05
3.7100562410692244e-05
4.2756531650612086e-05
4.8977656521836396e-05
5.5739845067055717e-05
6.300930988523495e-05
7.074288234819324e-05
7.888864645063287e-05
8.738685851009306e-05
9.61711165266786e-05
0.00010516973233880301
0.00011430742546580044
0.00012350753692899253
0.00013269515147721107
0.00014180108700424237
0.0001507659447768015
0.00015954317805452113
0.00016809978355302637
0.00017641507882223167
0.0001844789193258678
0.00019229058387178427
0.0001998596919502914
0.00020720761986909878
0.00021436919440743848
0.00022139328540002356
0.00022834268488517237
0.00023529342601937207
0.00024233401906532874
0.00024956478413254223
0.00025709734429588376
0.00026505424962223014
0.0002735686564674689
0.0002827838736482935
0.0002928510665934226
0.00030390289487690033
0.00031569415556876267
0.0003225958221023045
1.7752351010657683e-05
1.9377353735829075e-05
2.2687735012457397e-05
2.6687267628446436e-05
3.131265665126191e-05
3.655940940742936e-05
4.241856066710772e-05
4.8871689944642935e-05
5.5890298449191943e-05
6.343572466720765e-05
7.145938684361378e-05
7.990336886829956e-05
8.870137022415406e-05
9.77800194399903e-05
0.00010706058052766566
0.00011646109631281303
0.00012589906034049338
0.00013529460700516767
0.00014457400697984475
0.00015367298241638128
0.00016253915630634204
0.00017113327765636919
0.0001794292665051389
0.00018741369362377744
0.0001950854550248491
0.00020245589813944526
0.00020954947493640293
0.00021640433568618616
0.00022307268372347513
0.0002296206820959163
0.00023612807138299882
0.00024268768025026096
0.0002494049975819991
0.0002563978737264906
0.00026379637827678837
0.0002717427435988968
0.00028039122370075167
0.00028990619630804804
0.0003004368368773734
0.00031176722930347027
0.0003184357060980568
1.6603185547399304e-05
1.8244933535119047e-05
2.1616233941643243e-05
2.5725159965952538e-05
3.0505298507030472e-05
3.5948320450398186e-05
4.2041169358538627e-05
4.876103988746878e-05
5.6074632876879015e-05
6.3937939353389e-05
7.229637191037558e-05
8.108529538410002e-05
9.023101654012287e-05
9.965226112630908e-05
0.00010926216542715805
0.00011897077395597091
0.00012868800750768448
0.00013832697120485027
0.0001478073434259451
0.00015705847453282358
0.00016602182699309917
0.0001746525240133694
0.0001829200462952754
0.0001908083757934267
0.00019831590603736052
0.00020545541662304287
0.0002122541278599914
0.00021875375481882574
0.00022501046036312614
0.00023109463077141675
0.00023709055392286542
0.00024309610197982144
0.0002492225154647347
0.00025559436871983005
0.000262349724519583
0.00026964043437612115
0.000277632415707707
0.00028650428318288424
0.0002964233419248507
0.00030720732549035016
0.0003135968478214919
1.531282445788511e-05
1.697398199108738e-05
2.041512988125133e-05
2.4648551065941246e-05
2.9604103413502096e-05
3.5269185158230705e-05
4.162637822346042e-05
4.8648290033139885e-05
5.629659061972428e-05
6.452157832310666e-05
7.326212589341697e-05
8.244611850766798e-05
9.199146176545654e-05
0.0001018077198718737
0.00011179838275787554
0.00012186371755105438
0.00013190408033749316
0.00014182349167361053
0.0001515331974010319
0.000160954896431378
0.00017002336497001674
0.00017868828391577455
0.00018691530737641797
0.0001946864714620113
0.00020200019512612156
0.00020887104716610177
0.00021532941225974072
0.00022142109439131496
0.00022720689545166524
0.00023276217331181316
0.00023817647062186802
0.00024355327462394864
0.0002490099937663821
0.00025467820356309275
0.0002607041610667474
0.0002672495586015922
0.00027449232913944686
0.000282625954031061
0.0002918371134637207
0.0003019815207137092
0.00030804138679752944
1.388971717366426e-05
1.5572035071940577e-05
1.9090434047202438e-05
2.346197365591107e-05
2.861221272867771e-05
3.452396220604673e-05
4.117536858087407e-05
4.853448562758422e-05
5.655794560621063e-05
6.51901648427372e-05
7.436300015787444e-05
8.399601497546997e-05
9.39974755394713e-05
0.00010426615513828303
0.00011469392364715242
0.00012516904042680902
0.0001355799545356475
0.00014581935618277576
0.00015578815159321833
0.0001653990573048047
0.0001745795247910756
0.0001832738478915569
0.00019144440280771723
0.00019907213491190997
0.00020615643994332082
0.00021271464374356583
0.00021878124861675056
0.0002244070911612448
0.00022965851254848853
0.0002346166534095538
0.00023937695126611215
0.00024404893462151055
0.000248756375306824
0.00025363783422094826
0.0002588476105971314
0.00026455703670025986
0.0002709559405512183
0.0002782528047514776
0.00028665443215492915
0.0002960586888878696
0.0003017332271088773
1.2348944113899609e-05
1.405241478443545e-05
1.7652390365231174e-05
2.2172562613665143e-05
2.753375843884506e-05
3.3714083838686796e-05
4.0687480585177196e-05
4.8417816353808535e-05
5.685698116860584e-05
6.594353308019057e-05
7.560190482083459e-05
8.574238644345019e-05
9.626207032925591e-05
0.00010704684611467483
0.00011797442538043954
0.00012891824281313017
0.00013975197698615327
0.00015035433580898558
0.00016061371854943118
0.000170432377202073
0.00017972975710840733
0.0001884448603973622
0.00019653754508807176
0.00020398888511662648
0.00021080073549845427
0.00021699475320390783
0.00022261110533387219
0.00022770706878439117
0.00023235574830080693
0.00023664501077030913
0.00024067682161599277
0.0002445670317196914
0.0002484457081369004
0.00025245802844362495
0.00025676572994769425
0.00026154905922735737
0.00026700904478723454
0.0002733686777115949
0.00028085500829652335
0.0002894119217938497
0.00029464074751923963
1.0713948667770747e-05
1.2435640469715783e-05
1.6116299065467313e-05
2.0790272760761073e-05
2.6373483531549855e-05
3.283953910539597e-05
4.01588285366364e-05
4.829187058534345e-05
5.7186531278080365e-05
6.67758352453591e-05
7.697647966886798e-05
8.768838260478733e-05
9.879552271301383e-05
0.00011016819731717396
0.00012166664448682226
0.00013314583710010222
0.00014446104690543578
0.00015547372606985774
0.00016605717074391448
0.0001761014791190955
0.00018551743781795887
0.0001942390934202407
0.0002022249850904592
0.00020945813311849893
0.0002159450421371835
0.0002217140099913099
0.00022681307927722375
0.00023130794073904785
0.00023528003736788367
0.00023882510055038268
0.00024205224648209453
0.0002450837658062946
0.0002480556470448759
0.00025111887400285993
0.0002544414693545235
0.0002582112412355137
0.00026263902034100097
0.0002679610813496246
0.00027442408863941243
0.0002820213368253892
0.0002867400174880871
9.018214913186823e-06
1.0750737423358434e-05
1.4503157727030855e-05
1.9327829731110848e-05
2.513604574412022e-05
3.18975634576906e-05
3.95804590022131e-05
4.814339074427978e-05
5.753151844188128e-05
6.767308463796786e-05
7.84768847575478e-05
8.983116743641051e-05
0.00010160430419125773
0.00011364741117571261
0.00012579886207480528
0.0001378903513907218
0.0001497540075286545
0.00016122985324250233
0.00017217289072718283
0.00018245916045290207
0.00019199027118779911
0.00020069613768470263
0.0002085359070166945
0.00021549728129341154
0.00022159457005590903
0.00022686596222040527
0.00023137040711088065
0.000235184594355031
0.00023840030327697533
0.00024112243432572393
0.0002434678555471051
0.00024556519358282327
0.0002475556022869742
0.00024959453474092787
0.00025185449796598884
0.00025452872999040695
0.00025783564475283157
0.0002620227106801021
0.00026735475562626797
0.0002738771912417727
0.00027801837488873306
7.3066012284543504e-06
9.036198692363469e-06
1.2839927591952683e-05
1.780033974245245e-05
2.3824975588958374e-05
3.0880970241835194e-05
3.8936097224413654e-05
4.7949541793045674e-05
5.7865973895067987e-05
6.861021941283496e-05
8.008322712124038e-05
9.216000409789501e-05
0.00010469003943451829
0.00011750046370743941
0.00013040183012315035
0.00014319608109849983
0.0001556858967760268
0.00016768444432438466
0.00017902448036172993
0.00018956587087678287
0.00019920088474223953
0.00020785694428071105
0.0002154968989684982
0.00022211717811472696
0.00022774440901084109
0.00023243111458608732
0.0002362511717782187
0.00023929556342958355
0.00024166880380962536
0.00024348639878517196
0.00024487345218909275
0.0002459645050687761
0.0002469046479314503
0.00024785185311604487
0.0002489805468996721
0.0002504863636875094
0.0002525920168285177
0.0002555531655457406
0.0002596503530767068
0.0002649832272076545
0.0002684783856946945
5.63588238262518e-06
7.340208659582659e-06
1.1159238536105557e-05
1.622446215447515e-05
2.2441380471665984e-05
2.9776207940586758e-05
3.819945519291398e-05
4.767469737278165e-05
5.814957815518783e-05
6.954775775633262e-05
8.176270926239466e-05
9.465427693847407e-05
0.00010804872423964268
0.00012174264726952444
0.0001355106359619904
0.00014911601455967156
0.0001623234953415702
0.00017491225705882276
0.00018668788198466284
0.0001974918412260736
0.00020720760468498584
0.00021576310178579263
0.0002231297420687162
0.0002293186531036828
0.00023437508111753846
0.00023837189302736955
0.00024140306061671093
0.00024357788924873314
0.0002450163674973761
0.00024584604375911583
0.0002462004533445055
0.00024621916212786516
0.0002460493468436691
0.0002458488571725594
0.0002457906884105029
0.00024606887094255836
0.0002469058614883925
0.000248560788747722
0.00025132721552569465
0.0002553600173730778
0.00025814158858533036
4.074143752500729e-06
5.71970797543993e-06
9.498157679947954e-06
1.461762139595688e-05
2.0982778257406934e-05
2.856112822628466e-05
3.733125722874985e-05
4.7266964541065105e-05
5.832399339207256e-05
7.04282915381573e-05
8.346674990865373e-05
9.728173342660893e-05
0.0001116705000263844
0.00012639014937435307
0.00014116801544917593
0.00015571652311968234
0.00016975075845109146
0.00018300642296828688
0.00019525582863029502
0.00020631994282340862
0.0002160753023360221
0.00022445554607482555
0.00023144816536696812
0.00023708767312967185
0.00024144667228336605
0.00024462626263704526
0.00024674698414588073
0.00024794115858969585
0.0002483471403156246
0.0002481056741480066
0.0002473583767001338
0.0002462482113177192
0.00024492180169896583
0.0002435334102189917
0.0002422504887639659
0.00024126074445372998
0.00024078076104929046
0.00024106637886024739
0.00024241691527663876
0.00024504846342916927
0.0002470535675703503
2.696526978332114e-06
4.237269839645046e-06
7.897971928780709e-06
1.2997908472993022e-05
1.944096331958404e-05
2.720230405806603e-05
3.6276371718510434e-05
4.665509306146162e-05
5.830959625914977e-05
7.11733438519248e-05
8.512849758308147e-05
9.999732224910603e-05
0.0001155404526975412
0.00013146318250355907
0.0001474297921785228
0.00016308458962161252
0.00017807685811769988
0.00019208611877537574
0.00020484392882831254
0.00021614928662874657
0.00022587601732389722
0.00023397219971103586
0.0002404529209159937
0.00024538857490511833
0.0002488910095210256
0.00025109969936545597
0.0002521694865603318
0.0002522608465040469
0.00025153311382228376
0.0002501406773135692
0.00024823189077710476
0.0002459504029087964
0.00024343854741034693
0.000240842553659992
0.00023831940168666176
0.00023604523464715172
0.00023422538343168098
0.00023310516121129624
0.0002329791215175652
0.00023411074822277168
0.00023527963518608935
1.5910493541962213e-06
2.9626862658807094e-06
6.403656102433077e-06
1.1380263117452154e-05
1.7800780318012797e-05
2.565645307679201e-05
3.496627481329472e-05
4.5751065618489046e-05
5.800770747471343e-05
7.168528766796526e-05
8.666494096975795e-05
0.00010274632872051649
0.00011964366764139254
0.00013699354983529217
0.00015437495173912833
0.00017133960265586096
0.00018744826516465586
0.00020230710573527618
0.0002155979713911773
0.0002270980503437404
0.000236686866211795
0.0002443413190102145
0.00025012157080767946
0.0002541516473112335
0.0002565984862455381
0.0002576525024048394
0.0002575115360104068
0.00025636915446391057
0.00025440730824693466
0.000251793036243577
0.00024867848760645056
0.00024520370389650184
0.0002415015652603078
0.00023770457720509789
0.0002339532572402848
0.0002304062070031632
0.00022725180178240776
0.00022472189976077467
0.00022309885722491524
0.00022268601894789405
0.00022296151975902725
1.645847043874292e-05
2.437441119506865e-05
4.510743840831251e-05
8.873448499476198e-05
0.0001061920146526666
0.0001435714563244173
0.00016250684511797666
0.00019809789979782452
0.0002137337740106103
0.0002388887420550463
0.00024808332411371554
0.00025502101173474867
0.00025983016467261003
0.00026270784043829333
0.0002638901834426524
0.00026362696461849715
0.00023904516827962443
0.00023416255470582083
0.000216436682948334
0.00021344304153272223
0.00021101698265584405
8.66431771185094e-07
2.0889221739668406e-06
5.290472009525432e-06
1.010147414401453e-05
3.390406593645223e-05
5.8015802807968946e-05
7.259854070660715e-05
0.0001246225703383794
0.00018086404372531719
0.00022740761293448268
0.0002621623059680377
0.0002597220074111491
0.0002565069191777381
0.0002526912090389916
0.0002484245177828118
0.00024383678100198548
0.00022930752369372057
0.0002246159287723694
0.0002202545488503116
0.0002115956927223365
5.337543378757124e-07
1.569476193869003e-06
4.478380242090869e-06
9.04723897998811e-06
1.5212800796067001e-05
2.30066138160578e-05
3.2510064951737896e-05
4.38163362445781e-05
5.698934987643447e-05
7.20239776326914e-05
8.881003037443201e-05
0.00010710576323983684
0.00012652723025798496
0.00014655914281559257
0.0001665893586063516
0.00018596369063377858
0.00020405184085324433
0.00022031147727181237
0.0002343377600544877
0.00024588955099698594
0.00025489045926729517
0.00026140857687455835
0.0002656227793646461
0.00026778405587365864
0.0002681789963582062
0.00026709982312889336