# vtk DataFile Version 2.0
time_10.vtk
ASCII
DATASET UNSTRUCTURED_GRID
POINTS   4141  float 
2.584929319184621e-05         -3.295984656676339e-18        0.0                           
0.25000000000000056           2.444999260945591e-05         0.0                           
0.5000236724977508            -3.238413784584906e-16        0.0                           
0.75                          2.193666027021562e-05         0.0                           
1.0000209699559675            2.488127250671552e-16         0.0                           
1.25                          1.8823107580524993e-05        0.0                           
1.5000176387861357            3.4338976400418974e-17        0.0                           
1.75                          1.5043495926947665e-05        0.0                           
2.000013632803049             4.634939340531707e-17         0.0                           
2.25                          1.059138340705781e-05         0.0                           
2.5000089652066624            3.1969685576277836e-17        0.0                           
2.75                          5.519555611764399e-06         0.0                           
3.0000037116897946            -1.605517053812491e-17        0.0                           
3.25                          1.015284724199934e-17         0.0                           
3.4999979202212175            -2.6317994629019805e-17       0.0                           
3.75                          -6.280070165382142e-06        0.0                           
3.999991575144697             -6.853459784548973e-16        0.0                           
4.25                          -1.2810454456031283e-05       0.0                           
4.499984951672453             -7.351002227132739e-17        0.0                           
4.75                          -1.9606966032518087e-05       0.0                           
4.999978074003191             1.3462219154451564e-17        0.0                           
5.25                          -2.664336136296318e-05        0.0                           
5.499970956439359             1.0948431434101685e-16        0.0                           
5.75                          -3.3936749738583704e-05       0.0                           
5.999963564308408             2.1612527357353042e-16        0.0                           
6.25                          -4.155804566969673e-05        0.0                           
6.499955808848116             1.3123558909041926e-15        0.0                           
6.75                          2.577805507768249e-05         0.0                           
7.000025103485725             1.950569026516438e-06         0.0                           
7.250002082995298             2.3603842355266622e-05        0.0                           
7.500022768118765             2.3722908161750113e-06        0.0                           
7.750002527524208             2.090230441059689e-05         0.0                           
8.000019865124449             2.8543580022579224e-06        0.0                           
8.250003023866746             1.7569875260304464e-05        0.0                           
8.500016309102085             3.369701826871027e-06         0.0                           
8.750003543912705             1.3560062905911089e-05        0.0                           
9.000012073466651             3.8899072959273085e-06        0.0                           
9.250004059841961             8.88530285471412e-06          0.0                           
9.500007189235335             4.389369531954465e-06         0.0                           
9.75000454735766              3.609703406091206e-06         0.0                           
10.000001728806739            4.846324355047118e-06         0.0                           
5.011422938021451e-06         0.2999977809093298            0.0                           
0.24999572162967637           0.30000530318663465           0.0                           
0.5000054314643961            0.29999147381537167           0.0                           
0.7499892965798355            0.30000567815668056           0.0                           
1.0000057970654679            0.2999848486611142            0.0                           
1.2499825817999943            0.3000060285053827            0.0                           
1.5000061424801612            0.299977968334836             0.0                           
1.74997562247868              0.30000637125418345           0.0                           
2.0000064879679766            0.29997084960300047           0.0                           
2.2499684193815632            0.30000673108236464           0.0                           
2.5000068595183205            0.29996345817535186           0.0                           
2.749960919886205             0.3000071350610676            0.0                           
3.000007283976535             0.29995570501806296           0.0                           
3.2499530176515115            0.30000760796774095           0.0                           
3.5000036486763455            0.30002489258479675           0.0                           
3.7500241723486045            0.3000041611145866            0.0                           
4.000004443364584             0.3000225637689625            0.0                           
4.250021665594322             0.30000505226459967           0.0                           
4.50000537517813              0.3000196617166148            0.0                           
4.750018550252291             0.30000604760385857           0.0                           
5.000006392802226             0.3000160995134062            0.0                           
5.250014758992102             0.30000709045704055           0.0                           
5.500007438816314             0.30001184989939794           0.0                           
5.750010284177758             0.3000081252208444            0.0                           
6.0000084599965895            0.3000069412855251            0.0                           
6.250005169147314             0.3000091064918968            0.0                           
6.500009417530751             0.3000014324096531            0.0                           
6.7499994783976405            0.3000100288481406            0.0                           
7.000010322294645             0.29999541747214814           0.0                           
7.249993316125235             0.30001086218383954           0.0                           
7.500011114463028             0.29998899412770297           0.0                           
7.749986782119734             0.3000115968939491            0.0                           
8.000011829807132             0.2999822701019203            0.0                           
8.249979973628475             0.30001228649462486           0.0                           
8.500012513695125             0.29997530382865606           0.0                           
8.749972930142976             0.30001297528095117           0.0                           
9.000013213695144             0.29996809906461785           0.0                           
9.249965637079168             0.30001371604282856           0.0                           
9.500013984016736             0.2999606034658758            0.0                           
9.749958023141225             0.30001456301424617           0.0                           
10.000014877376033            0.2999527093040549            0.0                           
2.520745295162934e-05         0.6000054588289263            0.0                           
0.2500058302618171            0.6000238249891213            0.0                           
0.5000230542083302            0.6000066542699444            0.0                           
0.7500071025105779            0.6000213266111984            0.0                           
1.000020360941879             0.6000080578769306            0.0                           
1.2500085588459788            0.6000182092106364            0.0                           
1.500017018797786             0.6000095911137134            0.0                           
1.75001011586856              0.6000144038027796            0.0                           
2.000012979419557             0.6000111668869297            0.0                           
2.250011687346937             0.6000099023724994            0.0                           
2.500008253560786             0.6000127056065836            0.0                           
2.7500131995288672            0.6000047476747562            0.0                           
3.0000028962465497            0.6000141524626191            0.0                           
3.2500146116157422            0.5999990177712541            0.0                           
3.4999970007078027            0.6000154895352914            0.0                           
3.750015902987731             0.5999928279679133            0.0                           
3.9999906790258506            0.6000166789430165            0.0                           
4.2500170461801305            0.5999862751771302            0.0                           
4.499984027034678             0.6000177514184167            0.0                           
4.750018094137644             0.5999794500665201            0.0                           
4.9999771238812265            0.600018772700441             0.0                           
5.250019114218858             0.5999723974472656            0.0                           
5.499969995559794             0.6000198168582234            0.0                           
5.7500201842306               0.5999651047796025            0.0                           
5.999962609801315             0.6000209666107705            0.0                           
6.25002138755468              0.5999575001317368            0.0                           
[...]
POINT_DATA  4141
SCALARS Con float 1
LOOKUP_TABLE default
0.00010694025425066906
0.0001148012894726074
0.00013036087292740505
0.00014852085821309358
0.00016901050120615913
0.00019188325369526277
0.000217179447715281
0.000244899209972878
0.0002749983909628087
0.00030738776606713475
0.000341934050139097
0.0003784625355310379
0.0004167610867287345
0.0004565850161721589
0.0004976620593172503
0.0005396960505005921
0.0005823687078672193
0.0006253370470582667
0.0006683155757197842
0.0007116943209796781
0.0007602789817675794
0.0008089705547878008
0.0008527944399819603
0.000894463854512679
0.0009360930205341777
0.0009775578386141024
0.0010189177821661756
0.001060284587796022
0.0011018470795558673
0.001143857103660625
0.0011866221254305013
0.0012304988484518537
0.0012758878000542148
0.0013232283374779406
0.0013729937165369742
0.0014256859431993642
0.0014818295603259602
0.0015419552867160105
0.001606453633698285
0.0016735865660653599
0.0017122437609259147
0.00010856201719662536
0.00011660545572501283
0.00013247890305208504
0.0001509768524923738
0.00017182926932680668
0.00019508315588577768
0.00022077240521612695
0.0002488903360725132
0.0002793859479688878
0.0003121634182843832
0.00034708348424223646
0.0003839665676936482
0.0004225975209731912
0.0004627318677710278
0.0005041035652541969
0.0005464354752141781
0.0005894555452209521
0.0006329489238562174
0.0006768434349343976
0.000722216840869855
0.0007680807245907599
0.0008131650833146381
0.0008569305548035709
0.0008999506033998049
0.0009420590283793861
0.0009837425598687999
0.0010251781524365105
0.0010665616815476162
0.0011081217009962054
0.0011501342843774362
0.0011929233016378935
0.0012368580723466438
0.0012823497267797123
0.0013298470383071742
0.0013798319128642692
0.0014328144308693315
0.0014893266560513342
0.0015499064433449829
0.0016149486798197783
0.0016827440796060337
0.0017218279879319808
0.00010764605370779683
0.00011568646724256967
0.00013159415393482389
0.00015017300468030947
0.0001711467123246247
0.00019455987829928111
0.0002204430871971542
0.00024878609165068083
0.00027953424198014427
0.00031258827621610406
0.0003478061375017925
0.00038500683229397877
0.0004239764907843256
0.0004644770587660255
0.0005062588494389038
0.0005490795348926273
0.0005927393533461485
0.0006371219311008443
0.0006823795721318881
0.0007273202175646509
0.0007703007303389236
0.0008131726471447829
0.0008573143284471615
0.0009008436870486559
0.0009435090918424878
0.0009854421182863623
0.0010269210811425897
0.0010681960970908098
0.0011095366865856065
0.0011512445480057485
0.001193661157694386
0.0012371692264903213
0.0012821914401919003
0.0013291877095288264
0.0013786515294842991
0.0014311056157843012
0.0014870961258615031
0.0015471765989905374
0.0016117613067089095
0.0016791494005952076
0.001718012750813081
0.00010605898496392998
0.0001141120278523951
0.00013008401372491935
0.0001487969774915571
0.0001699726450614636
0.0001936507171684376
0.00021985621767800628
0.00024857273089218517
0.0002797391303645741
0.00031324966666126513
0.0003489561649238327
0.00038667238877679213
0.00042618075080369717
0.00046724165224927973
0.0005096056632072849
0.0005530286492128471
0.0005972806486494072
0.0006421463990439742
0.0006870888410840442
0.000731424859767647
0.0007750918606057858
0.0008183126574530619
0.0008614043927185587
0.0009044801475375182
0.0009469826500619513
0.000988812314360184
0.0010300897483324285
0.0010710397671976357
0.0011119336545606481
0.001153084992151882
0.001194849094329263
0.00123762305863942
0.001281844567191218
0.0013279896659146584
0.001376569711427459
0.0014281275309931557
0.0014832321135061703
0.001542463043864548
0.0016062638625577855
0.001672981712113203
0.0017115184567963165
0.00010381524691290781
0.00011188682998672132
0.00012795368694581936
0.00014685967568276413
0.00016832292971626694
0.0001923764009295414
0.00021903700120597369
0.0002482792845512334
0.00028003239606809124
0.00031418034721939864
0.000350564328994941
0.0003889870555137019
0.00042921907817573964
0.0004710067140950458
0.0005140805115728494
0.0005581601749619031
0.0006029502900256778
0.0006480810817297151
0.0006931327779358128
0.0007377549453232167
0.0007817498569985858
0.0008251929524284431
0.000868212043800381
0.0009107674169121002
0.0009527878863100241
0.0009941625271943113
0.001034941284040639
0.001075293166286499
0.0011154693018349932
0.0011557805976057922
0.0011965894400750023
0.0012383054287263006
0.0012813825431586129
0.001326316430756448
0.0013736414668106482
0.0014239272626779236
0.0014777738009317035
0.0015357963615661935
0.0015984807356892547
0.001664240327769744
0.0017023049930585093
0.00010089481331317312
0.000108993975407506
0.0001251897067472966
0.00014435136769153152
0.0001661918632301833
0.0001907350580101996
0.00021798711494686775
0.00024791054768196435
0.00028042132669323956
0.00031538917823173456
0.0003526397668324512
0.00039195865131034255
0.00043309675234273656
0.00047577665542461044
0.0005196981775302314
0.0005645409853096355
0.0006099580980493586
0.000655582269077992
0.0007010519830258386
0.0007460630727516189
0.0007904374612047246
0.0008341077846316876
0.0008770663810290606
0.000919309539387739
0.0009607988274153781
0.001001531722637857
0.0010415654753383478
0.0010810519587350546
0.0011202272520660125
0.001159398181946807
0.00119893208709624
0.001239250530591321
0.0012808250436998887
0.0013241738282497187
0.0013698587653641911
0.001418482242327514
0.0014706828027678139
0.001527120801556078
0.0015883359191217084
0.001652827921979996
0.0016902652557507672
9.72775046710446e-05
0.00010541512628235642
0.00012177785807582246
0.00014126237894324624
0.00016357440445599744
0.00018872626446831832
0.0002167106739158906
0.0002474751234899041
0.0002809190324364072
0.00031689393379536384
0.0003552053930914871
0.00039561652315940843
0.00043785283565130577
0.00048160785469447464
0.0005265486996226857
0.0005723206812727455
0.0006185545738492218
0.0006648796792292418
0.0007109486270475878
0.0007564710842048278
0.0008012355076220426
0.0008451135725821118
0.0008880377571370116
0.0009299734008203573
0.0009709143984226157
0.0010108887042036485
0.0010499846275625958
0.0010883622349213105
0.0011262588408748361
0.0011639841584114687
0.0012019137512089134
0.0012404833044679197
0.0012801842788998056
0.0013215605781618715
0.0013652057992204918
0.0014117605702670675
0.0014619089532198223
0.0015163651060245283
0.0015757338540433852
0.0016386220805693571
0.0016752607414364145
9.294543606958012e-05
0.00010113428245530757
0.00011770604547366693
0.00013758512792943402
0.00016046771394095764
0.00018635204451269155
0.00021521476781657302
0.0002469855721611933
0.0002815442507813349
0.0003187206557279818
0.00035829629008478933
0.00040000750336335053
0.00044355016306130607
0.0004885855812373213
0.000534747469713222
0.0005816505624041172
0.0006289019474551304
0.0006761171358639856
0.0007229406662577002
0.0007690670309783548
0.0008142565176182997
0.0008583387733880014
0.0009012064560341602
0.0009428059976928876
0.0009831318504458085
0.0010222312686819952
0.0010602117550678493
0.0010972499540045186
0.0011335948982411897
0.0011695674734911784
0.0012055569724382237
0.0012420171350805054
0.0012794626822044235
0.0013184666298092982
0.0013596582548745279
0.0014037213340293776
0.0014513916539859238
0.0015034451183347378
0.0015605623497923545
0.0016214789865288967
0.0016571286964881826
8.788746754189246e-05
9.614157807986817e-05
0.00011296737233114875
0.00013331634797833757
0.0001568724729621886
0.00018361732702234384
0.00021350909015086498
0.0002464572488161491
0.00028231938195913403
0.00032090070638756194
0.0003619552761434025
0.00040518893635408505
0.00045026412326531703
0.0004968065326990206
0.0005444137964066774
0.0005926664228896648
0.0006411414871780392
0.000689429038955279
0.0007371501011662284
0.0007839737734211415
0.0008296298727711835
0.0008739152565041502
0.0009166941161899685
0.000957895288432532
0.0009975106857117804
0.0010355960217621404
0.0010722743086588216
0.001107739068007361
0.0011422563215889626
0.0011761642017537191
0.0012098710640541421
0.0012438529797424453
0.0012786514812261486
0.0013148719748465748
0.0013531828777720617
0.0013943152088742481
0.0014390616819921292
0.0014882668194266529
0.0015426968248256137
0.00160123835900812
0.0016356869348343405
8.210447848204144e-05
9.043799305898779e-05
0.00010756371589203654
0.00012845945670431863
0.00015279402678835172
0.0001805298755406864
0.00021160471177117645
0.00024590600824656977
0.00028326718025438
0.00032346644763034534
0.0003662274518732166
0.0004112219176419842
0.0004580746401858117
0.0005063709854839141
0.0005556670138881009
0.0006055022420644869
0.0006554148408065726
0.0007049586138541927
0.0007537204345420015
0.0008013362133225116
0.0008475034989477106
0.0008919895060350518
0.0009346348084343496
0.0009753541580164429
0.001014136174281905
0.0010510433487160996
0.001086212464350173
0.0011198550715999503
0.0011522573288576244
0.0011837790134192152
0.0012148519120724064
0.0012459782019833973
0.0012777293162110606
0.001310745678841471
0.0013457373794731624
0.0013834855780108363
0.0014248437248649353
0.0014707303585139249
0.001522005705789414
0.0015777300392398755
0.0016107410696447337
7.561571062277993e-05
8.404088250752176e-05
0.00010150976487536493
0.00012302698625997924
0.00014824318323379364
0.00017709950158454515
0.000209511839342308
0.0002453446842331623
0.0002844061832746699
0.00032644586452103486
0.00037115431157642634
0.00041816531359057063
0.00046706094456958215
0.0005173798504713885
0.0005686287836537167
0.0006202971451059565
0.0006718739285504367
0.0007228660549043301
0.0007728166680270593
0.0008213217871453789
0.000868043840320003
0.0009127212328962216
0.0009551739331434641
0.000995305790241677
0.0010331047119342374
0.0010686416531222548
0.001102069106575144
0.0011336192215182406
0.0011636017748123046
0.0011924020340324817
0.001220478886031787
0.0012483636226477135
0.0012766597867057666
0.0013060443377728441
0.0013372701809634035
0.0013711698607713724
0.001408659494113779
0.0014507350271900994
0.0014983572608953057
0.0015507825255821233
0.0015820939123004365
6.846614106582057e-05
7.69903127634835e-05
9.483739329893262e-05
0.00011704288093552115
0.00014323643349040103
0.0001733363174935556
0.0002072362987621276
0.00024477811756946753
0.00028574468914659883
0.0003298559804541118
0.00037676717757650815
0.00042606993335286397
0.000477297354438205
0.0005299330988239589
0.0005834245380041878
0.0006371995212318462
0.0006906857999337694
0.0007433317759711511
0.0007946269467468782
0.0008441204174821403
0.0008914360674009851
0.00093628354379094
0.0009784648837949527
0.0010178772402331757
0.0010545125437929324
0.0010884550705483574
0.0011198778106053368
0.0011490383061906284
0.0011762745668640615
0.0012020015272109466
0.0012267085235625193
0.0012509582296718574
0.0012753873842523326
0.0013007095102663163
0.0013277196369958267
0.0013573007717180153
0.0013904312094068978
0.0014281851137075588
0.001471627868698227
0.0015202335311466902
0.0015495572588215775
6.0734758976141516e-05
6.935599327537549e-05
8.760013423681885e-05
0.00011054437801607222
0.00013779528436183098
0.00016924767845188528
0.00020477440074358278
0.0002441963921914329
0.00028727293914317136
0.0003336946877026683
0.0003830794644969111
0.00043497204928568246
0.0004888488418508113
0.0005441279017419796
0.0006001842633739199
0.0006563697879241979
0.0007120362329723604
0.0007665597667294473
0.0008193649232170522
0.0008699460662511046
0.0009178847713388653
0.0009628621868665997
0.00100466606659181
0.0010431929242576698
0.0010784461601473833
0.0011105313353414012
0.001139649796248391
0.0011660917198398012
0.001190229622685273
0.0012125130320409954
0.0012334650559670196
0.0012536812905841286
0.0012738314341027637
0.001294663763273023
0.001317012429169478
0.0013418072856813156
0.0013700853294442922
0.0014029965380696868
0.0014417116628632051
0.0014859425907759974
0.0015129660897070859
5.2543293928336126e-05
6.12443970356457e-05
7.987731408433738e-05
0.00010358305977411887
0.00013194429950093276
0.000164833459059177
0.00020210582638474498
0.0002435658864486392
0.0002889530834123642
0.0003379305314512714
0.00039007727543504414
0.0004448857738942507
0.0005017659634420024
0.0005600565511630955
0.0006190433466573922
0.0006779835751013064
0.0007361342896681919
0.0007927824594947246
0.0008472740892477918
0.0008990398530573245
0.0009476153158101718
0.0009926545413105798
0.0010339368387597022
0.0010713671799181292
0.0011049714971873474
0.0011348883836149724
0.0011613588868448303
0.0011847159362914199
0.0012053747635554868
0.0012238254100675153
0.0012406281022078903
0.0012564120805625494
0.0012718781961432474
0.0012878054221663418
0.0013050612066534773
0.0013246153661436663
0.0013475564995098612
0.0013751042042807083
0.0014085314651054554
0.001447805638312463
0.0014721952012478382
4.4064586328600096e-05
5.2805280442735935e-05
7.177721165606552e-05
9.622455184409308e-05
0.00012570750811361972
0.0001600793845090265
0.00019918427041288808
0.00024281785535137547
0.00029070661255027114
0.00034249014343409195
0.0003977080852172372
0.0004557941708049738
0.0005160793335945071
0.0005778047650439161
0.0006401446375759484
0.0007022368974125396
0.0007632194911602703
0.0008222685578052678
0.0008786348809240211
0.0009316752445636496
0.0009808761169712286
0.0010258682470099336
0.0010664320389966169
0.0011024946507779867
0.0011341205886479758
0.0011614980812369466
0.0011849234665702423
0.0012047858174709589
0.0012215534748162215
0.0012357638972465277
0.0012480176814896836
0.0012589773509792065
0.001269371163747364
0.0012800020363513648
0.001291761506946487
0.0013056484674392208
0.0013227917603515283
0.0013444699101616345
0.0013720507582724198
0.0014057712572559129
0.0014271779006604392
3.5529179091233595e-05
4.423636372861861e-05
6.3438259172452e-05
8.854640541748493e-05
0.00011910302074293726
0.0001549484786847348
0.00019592589976979722
0.00024183447895453783
0.00029239915339856473
0.0003472432534046433
0.0004058675693372378
0.00046763940531285343
0.0005317942662236073
0.0005974514728549338
0.0006636432606104742
0.0007293551212354318
0.0007935734310662627
0.0008553353567029503
0.000913775702128794
0.0009681659413715701
0.0010179419996747708
0.0010627191719320588
0.0011022943620884714
0.0011366373988842041
0.0011658743198386897
0.0011902658389606159
0.0012101843383623325
0.0012260921500746695
0.00123852331442796
0.0012480703629092363
0.0012553769889106956
0.0012611370586012968
0.0012661000676138369
0.0012710829631976102
0.0012769882539053325
0.0012848282989677817
0.001295755286278701
0.0013110912292788478
0.0013322862968227528
0.0013598580823417496
0.0013779266291900176
2.722763929762466e-05
3.578416562396515e-05
5.502734993356392e-05
8.063383192989502e-05
0.00011213646747270433
0.00014937125065967013
0.0001921958163308945
0.00024043260885304836
0.00029382295248984254
0.0003519856875431842
0.0004143850784251569
0.0004803126445167079
0.000548886698120059
0.0006190715863259344
0.0006897161311976859
0.0007596079907714725
0.0008275380850633726
0.0008923675461998235
0.000953089260033678
0.001008877157703821
0.001059118589645595
0.0011034280600841445
0.0011416433440771942
0.0011738072509314729
0.0012001396508927226
0.0012210046605730367
0.0012368775319351476
0.0012483149318856996
0.0012559310607213401
0.0012603812641621076
0.0012623537042601633
0.0012625692550514971
0.0012617893492214015
0.001260831443967798
0.0012605918241987404
0.001262075699682979
0.0012664350775968836
0.0012750110700890864
0.0012893222845752532
0.0013101722396006467
0.0013245525019158703
1.9506920045954813e-05
2.7738804205777256e-05
4.673336027848505e-05
7.257557375447819e-05
0.00010479505138511954
0.0001432344624887937
0.00018779302810935462
0.00023834629246462192
0.0002946783515538733
0.0003564216361441506
0.0004230090262790327
0.0004936450782571021
0.0005673020373520867
0.0006427439914295922
0.000718578902056789
0.0007933337322879136
0.0008655438448998543
0.0009338449938932021
0.0009970558495966497
0.0010542408622924962
0.0011047472281616295
0.0011482144059356454
0.0011845590234955607
0.001213941156992339
0.001236719405113224
0.0012534021513970128
0.001264601199048597
0.0012709922853811884
0.0012732851695234128
0.0012722044859492258
0.0012684814559023106
0.0012628559109785675
0.0012560877966171613
0.0012489773682383784
0.0012423934924778919
0.0012373098793029718
0.0012348492814638092
0.0012363368911599195
0.0012433221671289925
0.0012569255175332156
0.001267291606238271
1.2748091987421185e-05
2.041771105313338e-05
3.876568311450863e-05
6.446325412704495e-05
9.703682541160881e-05
0.00013636774184945283
0.00018243626176207804
0.0002352113898852968
0.00029455751600973714
0.00036014793052226076
0.0004313943940783053
0.0005074020781918456
0.0005869592278040325
0.0006685675356455832
0.0007505138157098718
0.0008309761760414766
0.000908151050073184
0.00098038256250779
0.0010462753115918757
0.001104775040570209
0.0011552089185913337
0.0011972849449022268
0.0012310570258841505
0.001256866465242145
0.0012752719417300456
0.0012869788218449892
0.0012927760295010043
0.001293485572230358
0.0012899270331509795
0.0012828972590525523
0.001273164125426668
0.0012614727328289243
0.001248562500631888
0.0012351936056978288
0.001222182084521466
0.0012104430006078808
0.0012010420107299814
0.001195250850259861
0.0011945952006562914
0.0012004408045991398
0.001206483167860045
7.393654683751454e-06
1.4172294032276477e-05
3.135087383990881e-05
5.637202560948801e-05
8.878486076430518e-05
0.00012855148683218708
0.00017577732659098696
0.00023057982402974585
0.00029295695192056324
0.00036266503546012016
0.0004391147393581998
0.0005213004154210726
0.0006077776687466066
0.0006967007142245858
0.000785922128774688
0.000873146002582835
0.0009561126008292235
0.0010327847584113232
0.0011015047852149873
0.0011610982013245956
0.001210913167680559
0.0012507985955489218
0.0012810346946652087
0.0013022353200496904
0.0013152413215775918
0.001321020669173797
0.0013205853897941791
0.0013149302959739493
0.0013049942061517316
0.0012916417945260095
0.0012756629179813397
0.0012577861848395023
0.0012387039579890783
0.0012191069364453485
0.001199727326725618
0.0011813905640239092
0.001165075575961677
0.001151985466149659
0.0011435836301264557
0.001141441644229367
0.0011428644445425744
8.204728126665124e-05
0.0001220782131574903
0.00022727395957230928
0.00044954786109727217
0.000538747534091467
0.0007301866546884451
0.0008274065067791792
0.001010650696279975
0.001091409424591037
0.0012218065620116301
0.0012696943245524654
0.0013059785674569423
0.0013312848222268344
0.0013466002276649176
0.0013531218706801709
0.0013521252892427357
0.0012261594477054228
0.0012009286171980069
0.0011092248925856744
0.0010937316762855546
0.0010811785867596649
3.9682655233761345e-06
9.954787866052858e-06
2.5866292005592855e-05
5.000048221347253e-05
0.00017038093143208693
0.00029293345349147554
0.0003672233405269222
0.0006330630667373026
0.0009218300553314637
0.001162203251292835
0.0013448639484936783
0.0013325023557349519
0.0013160802064163305
0.0012965022428376438
0.0012745480008148004
0.0012508961188046454
0.0011758233913282295
0.001151552420024471
0.0011289836340128384
0.0010841719905334132
2.4484176531832053e-06
7.461215338113456e-06
2.1851159488521834e-05
4.472391260927349e-05
7.576796392247994e-05
0.0001151478494137425
0.0001632863147225885
0.00022067153848033213
0.0002876478280928262
0.000364212071129331
0.00044982854409114474
0.0005432909548035275
0.0006426642966507527
0.0007453355114966858
0.000848184769688483
0.0009478616002706243
0.0010411203124693587
0.0011251491909002001
0.0011978280756445615
0.001257869206481321
0.0013048293681907235
0.0013390121713695627
0.0013612993201519703
0.0013729541653962
0.0013754341072137698
0.0013702352615286321
0.001358780001808333
0.0013423476253163792
0.0013220423690447232
0.0012987905954103401
0.0012733588059651076
0.0012463860638532358
0.0012184259428639585
0.0011899957580031274
0.0011616323492594969
0.0011339553268484225
0.001107740690457046
0.001084005167412524
0.0010641111940147517
0.0010497775597632277
0.001044042081788972
1.7089015062662303e-06
5.7907148267244805e-06
1.871538937139671e-05