# vtk DataFile Version 2.0
time_10.vtk
ASCII
DATASET UNSTRUCTURED_GRID
POINTS   4141  float 
6.183114693698771e-05         1.8794129276619473e-17        0.0                           
0.2500000000000005            5.9141900067524996e-05        0.0                           
0.5000575569288084            4.873581320771985e-17         0.0                           
0.75                          5.38417518987139e-05          0.0                           
1.0000516901916519            4.1435362944984096e-17        0.0                           
1.25                          4.675880076472004e-05         0.0                           
1.5000439684528317            1.1083127326013143e-16        0.0                           
1.75                          3.7726704244774826e-05        0.0                           
2.000034276464701             7.314793966401502e-17         0.0                           
2.25                          2.673494636982782e-05         0.0                           
2.5000226570531807            -1.5875576572924923e-17       0.0                           
2.749999999999998             1.3942644241405247e-05        0.0                           
3.0000093478798857            7.939809117166169e-18         0.0                           
3.25                          6.694306896773986e-18         0.0                           
3.499994382700784             -2.7497684185924377e-17       0.0                           
3.75                          -1.6819812255162398e-05       0.0                           
3.9999774633339484            -2.8137985450929938e-18       0.0                           
4.25                          -3.426842595938954e-05        0.0                           
4.49995971945131              1.4158351436386896e-16        0.0                           
4.75                          -5.258309913314774e-05        0.0                           
4.999941130056144             -4.355746418832074e-17        0.0                           
5.250000000000001             -7.17162624740363e-05         0.0                           
5.499921718649543             -4.648341110096119e-16        0.0                           
5.75                          -9.172306540537357e-05        0.0                           
5.999901383719466             -1.0147055975411154e-16       0.0                           
6.25                          -0.00011280202637053752       0.0                           
6.4998798788393755            1.1763722751409424e-15        0.0                           
6.75                          6.160305300742149e-05         0.0                           
7.000060336324645             3.74313901039508e-06          0.0                           
7.2500041586101345            5.733548504173459e-05         0.0                           
7.5000555740178685            5.052254765185437e-06         0.0                           
7.7500055261229654            5.147127242669784e-05         0.0                           
8.000049111933995             6.515475098127936e-06         0.0                           
8.250007025568388             4.374605062406258e-05         0.0                           
8.500040732762217             8.062782814858564e-06         0.0                           
8.7500085844381               3.404314235876954e-05         0.0                           
9.000030371579523             9.620714585266028e-06         0.0                           
9.2500101303568               2.240070218832972e-05         0.0                           
9.500018116975717             1.1120578813799113e-05        0.0                           
9.750011596006527             8.998692791506469e-06         0.0                           
10.000004160871383            1.2495727173212297e-05        0.0                           
1.3037419633143762e-05        0.29999386752646207           0.0                           
0.2499884323311249            0.3000139681862579            0.0                           
0.5000143637418276            0.29997714466015246           0.0                           
0.7499713321759098            0.30001513454564516           0.0                           
1.0000155100526686            0.29995940291903217           0.0                           
1.2499532951166041            0.30001624625847284           0.0                           
1.5000166105531445            0.2999408072934114            0.0                           
1.749934428669144             0.3000173428676664            0.0                           
2.0000177160183226            0.29992139281955127           0.0                           
2.249914726451655             0.3000184898621901            0.0                           
2.5000188960277776            0.2999010599392023            0.0                           
2.7498940395725913            0.30001975996730346           0.0                           
3.0000202225280064            0.29987956159642387           0.0                           
3.2498720744940797            0.300021219176604             0.0                           
3.500006687199378             0.30005965928090705           0.0                           
3.750058248342802             0.3000083047073048            0.0                           
4.000009180369468             0.3000549137880988            0.0                           
4.250052964994556             0.3000110452363813            0.0                           
4.500012024716218             0.3000484539167209            0.0                           
4.750045876943985             0.30001405114864105           0.0                           
5.000015087033691             0.3000400578220849            0.0                           
5.250036812517671             0.30001717663030836           0.0                           
5.5000182197575915            0.30002965629866923           0.0                           
5.7500257526973835            0.300020278167065             0.0                           
6.00002128480237              0.3000173215607406            0.0                           
6.250012804984746             0.30002323733656183           0.0                           
6.50002418423065              0.30000317409068705           0.0                           
6.749998093870728             0.3000260916952758            0.0                           
7.00002701992936              0.29998745011059463           0.0                           
7.249981896372517             0.3000287128358455            0.0                           
7.500029503214191             0.2999703949220575            0.0                           
7.749964475539293             0.30003102595157094           0.0                           
8.000031766392324             0.29995234047701597           0.0                           
8.249946134479837             0.3000332254028352            0.0                           
8.5000339531439               0.29993345620987527           0.0                           
8.749926982710491             0.30003543064804233           0.0                           
9.000036191315328             0.29991374955454925           0.0                           
9.249906977069474             0.3000377842422354            0.0                           
9.500038627353824             0.2998930738371982            0.0                           
9.749885919090401             0.300040432026933             0.0                           
10.000041402399653            0.2998711314418085            0.0                           
5.977631917433363e-05         0.6000099941002315            0.0                           
0.2500111741421667            0.6000571304934628            0.0                           
0.5000555627579887            0.6000137429569506            0.0                           
0.7500151201812076            0.6000518686189608            0.0                           
1.0000497195850937            0.6000180247989675            0.0                           
1.2500195363295092            0.6000447749697702            0.0                           
1.5000419681732342            0.6000226362695122            0.0                           
1.7500242079715391            0.6000356721488435            0.0                           
2.0000321831181265            0.6000273546050608            0.0                           
2.25002891465487              0.600024535783342             0.0                           
2.500020386402403             0.6000319762288039            0.0                           
2.750033468475606             0.600011463002241             0.0                           
3.0000067006007627            0.6000363720521744            0.0                           
3.250037788676733             0.5999966345096197            0.0                           
3.4999913611775937            0.6000405283771266            0.0                           
3.7500418251097267            0.5999803719777937            0.0                           
3.9999746718925095            0.600044264379411             0.0                           
4.250045424382992             0.5999629167180073            0.0                           
4.4999568822725875            0.6000476658661333            0.0                           
4.750048760936926             0.5999445344576813            0.0                           
4.999938228753535             0.600050935382303             0.0                           
5.250052030257872             0.5999253578082064            0.0                           
5.49991878807023              0.6000542765626756            0.0                           
5.750055444990605             0.5999053533050122            0.0                           
5.999898471422878             0.600057914386272             0.0                           
6.2500592312658245            0.5998843218923002            0.0                           
[...]
POINT_DATA  4141
SCALARS Con float 1
LOOKUP_TABLE default
0.0003636700248730622
0.00041392400775527594
0.0005105317800841967
0.0006257159939785533
0.0007584875545741871
0.0009096000299653874
0.00107966580984736
0.0012689935609428167
0.0014775562892086922
0.0017049800554355162
0.001950544875808818
0.0022131960494342234
0.00249156328512391
0.0027839828668749676
0.00308851456238797
0.003402939192876792
0.00372472439187444
0.004051005016491674
0.004379299142416067
0.004717610097124816
0.005127204146285699
0.005540113052882956
0.005891891106845164
0.006226878119174837
0.006566106255878314
0.0069079902948716715
0.0072524822842675645
0.007600016417300377
0.007951721499207408
0.00830927449446395
0.008674823764823038
0.009050927178266577
0.009440501977758977
0.009846779146263893
0.010273258791247282
0.010723663968602939
0.011201886889675926
0.011711859784641584
0.012256414251153367
0.012821286934290053
0.013148500188778858
0.00036838404311613976
0.0004199232800525186
0.0005185909076766643
0.000636077481047595
0.0007713941841511908
0.0009252535028634142
0.001098223682410191
0.001290565555934092
0.0015022034062395894
0.0017327165257587887
0.001981343776039916
0.0022470002143813554
0.0025283051362224463
0.0028236214353735047
0.0031311091569394887
0.003448809998998661
0.0037748176895074878
0.00410783927684491
0.0044486707642830865
0.004809270766412431
0.005180891363496275
0.005550009334212159
0.005908910184405575
0.006260496209045859
0.006606528192954577
0.006951934397076522
0.007298194427667908
0.007646703321728994
0.007999037095874153
0.008357131066594704
0.008723299494175111
0.009100222146952976
0.009490915388580077
0.00989869672722478
0.010327145118742656
0.01078005699413129
0.011261392969575295
0.011775149707172137
0.012324197203372207
0.012894487806661595
0.013225233890685367
0.0003639869086803302
0.0004153957230375799
0.0005141001189984208
0.0006318982050339571
0.000767785311471179
0.0009224710638141573
0.0010965152913747804
0.0012901692723056417
0.0015033485632972524
0.0017356276275660761
0.001986249251537149
0.0022541497208915804
0.002538002629691054
0.002836288071116266
0.0031474039713364917
0.0034698554370729555
0.0038026262713410676
0.004145690730776244
0.004501580715489888
0.004858969976111753
0.005195294153281795
0.005534036018755474
0.005895929819302724
0.006256303419278501
0.00661044143494413
0.006960276591456229
0.0073085179620758995
0.007657294128095534
0.008008693120015524
0.008364962242908412
0.008728620333673755
0.00910249436167803
0.009489720694749381
0.00989372689783412
0.01031820221543959
0.010767059733508914
0.011244386649236042
0.011754315597274257
0.012299870644291621
0.01286703075230917
0.013196020232830764
0.00035634865574301066
0.0004076724510763281
0.0005064617395283302
0.0006247616058580886
0.0007615821985336066
0.0009176232505003339
0.0010934293607866115
0.0012892332074872423
0.0015049310498215414
0.0017400802076067217
0.0019939123146336993
0.0022653638822150907
0.0025531272265420456
0.0028557265436710945
0.00317162380878075
0.00349935458720991
0.0038375977465196537
0.004185045890915112
0.004536803747562179
0.004884787850111612
0.005229169395676835
0.005573443733221704
0.005922043902342085
0.006276941175848879
0.006630665368261245
0.006981145250924629
0.007329196040991584
0.007676583019301517
0.008025397313833333
0.008378008043440955
0.008737076085574261
0.009105571939154775
0.009486777118753481
0.009884271320864413
0.010301908346277637
0.010743782522739904
0.011214181447143982
0.0117174580983034
0.012256871806713613
0.01281876253069792
0.01314517048180207
0.0003455909063614485
0.0003967899296503112
0.0004957137037246032
0.0006147303895337891
0.0007528682152434352
0.0009108125676524627
0.0010890837475975403
0.001287884165103425
0.0015070756373246927
0.0017461780560064232
0.002004382979097977
0.0022805826855211027
0.0025734148559700457
0.002881319759459439
0.0032025978577613448
0.0035354219023453746
0.0038777208934276893
0.004226474657528355
0.004577690542835226
0.004928180402832715
0.005276239631586964
0.005623484230417742
0.00597206404196365
0.0063216301446186954
0.006671098024914802
0.007018468402675985
0.007363460124793705
0.007707085465905204
0.008051124251080975
0.008397861937658138
0.008749996711716583
0.009110600958619774
0.009483099354236775
0.009871247455932328
0.010279105765195315
0.010711006702103398
0.011171508296146085
0.011665267079610245
0.012195889639570114
0.012750255506154572
0.013072978457038285
0.00033166348811040057
0.0003827126244868225
0.00048182430629109833
0.0006017786626173137
0.000741622947471124
0.0009020210196928151
0.001083458928530291
0.0012860957889423562
0.0015097418130864866
0.0017538560526039507
0.002017556950087046
0.0022996449835032337
0.0025986348651821423
0.0029127900517631924
0.003240142029988183
0.003578466793193881
0.003925156656315827
0.00427720258054762
0.004631514935831357
0.004985445352946544
0.005337708338533644
0.005688138368780456
0.006037058834577377
0.006384565819000683
0.006729959085129173
0.007072635586972847
0.007412414797910256
0.007750016576654289
0.008086965397004223
0.008425426601671239
0.008768091398348232
0.009118109943259015
0.009479048794148246
0.009854858445090472
0.010249842611901672
0.010668624131426684
0.011116099522008923
0.011597314727146294
0.012116334503268539
0.012660737293856493
0.012978545570282433
0.0003145433546400168
0.0003654178664934347
0.0004647752780115946
0.0005858927601820037
0.000727836396915434
0.0008912404720853844
0.0010765466551209862
0.0012838582901789507
0.0015129179325637958
0.0017631024475508743
0.002033428684089149
0.0023225686079283024
0.002628871158586298
0.0029503848430206597
0.003284872688519998
0.0036298111648246072
0.003982413818891957
0.004339741063875715
0.004698941034896727
0.005057643247750638
0.005414183879253993
0.0057676563004318854
0.006117614831390299
0.006463706627305093
0.00680560356612035
0.007143057585771372
0.0074762449793516665
0.007805938323153967
0.008133603777981046
0.00846136392332957
0.008791930417951715
0.009128544163548233
0.009474929226335787
0.00983525605616331
0.01021410872528716
0.010616451225133442
0.011047584405147056
0.011513026530827357
0.012017400690432226
0.012549149441649669
0.012860681405029759
0.0002942495361030201
0.0003449222081755089
0.00044457957231092403
0.0005670839197378966
0.0007115179894053309
0.0008784780043613158
0.0010683522189218308
0.0012811781745203572
0.0015166184981755964
0.0017739520738680769
0.0020520741626252467
0.00234950516269439
0.0026644069807764915
0.0029946052762738354
0.003337616968687407
0.0036906927032911005
0.004050893438768574
0.004415225532333884
0.004780844047360339
0.005145263106768845
0.005506521785718367
0.005863203260143438
0.006214343650875385
0.006559308746906424
0.006897716637529153
0.007229500444656385
0.007555013618393073
0.007875164822894376
0.008191486031550631
0.008506150412504807
0.008821948317846759
0.009142249939247959
0.009470968367602285
0.009812526850482383
0.010171829188482528
0.010554230002200397
0.01096549687976681
0.011411697881959688
0.011898113172838636
0.012414233520480737
0.012717964794797847
0.0002708720924348373
0.00032130525843699275
0.0004213003392064056
0.0005454010174792302
0.0006927030369212824
0.0008637561930464037
0.0010588885835950018
0.001278066037648483
0.0015208646385746689
0.0017864565555215644
0.0020736039996152042
0.002380662554414253
0.0027055952641693855
0.0030459991434683273
0.0033991480132003608
0.0037620586480979976
0.00413158968426387
0.004504578452627389
0.004878003585653984
0.005249148187448976
0.005615718594622787
0.005975899395544754
0.006328344934021713
0.006672143735825349
0.007006804326002879
0.007332276216181642
0.007649012672385228
0.0079580361509915
0.008260990693685731
0.008560162777877394
0.008858477669177075
0.00915948031897497
0.009467311276394972
0.009786683086471848
0.01012285857433941
0.010481629298653174
0.01086928677245047
0.011292521237944695
0.011757367059436368
0.012254558091787623
0.012548771035769056
0.00024460398019932863
0.0002947376836293572
0.0003950712442726676
0.0005209428610689185
0.0006714566695239567
0.0008471085347327294
0.0010481632512135525
0.001274514745026918
0.001525653007909994
0.0018006423825345722
0.0020981077614059917
0.0024162318627352916
0.0027527671673225097
0.0031050663335221067
0.003470135291543732
0.0038447133239810703
0.004225382500314083
0.004608703041055496
0.004991363207028561
0.0053703229270762095
0.005742930936489311
0.0061070009026783
0.006460849199981404
0.006803309885522534
0.00713374575826338
0.00745207107769991
0.007758784630385504
0.008055007166541266
0.008342510323577641
0.008623731762863737
0.008901775508867484
0.009180402760563287
0.009464018612080518
0.009757659317549567
0.010066981773624297
0.010398254207207556
0.010758341177174642
0.011154619286226004
0.011593967943819972
0.012068567437665075
0.01235132434719962
0.00021577648908958216
0.0002655115255332112
0.0003661174621098915
0.0004938691063454637
0.0006478742957729198
0.0008285693258607974
0.001036157745241012
0.001270468929150345
0.0015309158531713546
0.0018164622371057509
0.0021255977872514935
0.002456326825988319
0.002806175879479371
0.0031722253223911735
0.0035511691079238242
0.003939404656791341
0.0043331514714859964
0.004728592189441443
0.005122024190673688
0.005510006518773739
0.00588948698834075
0.006257900137719773
0.006613234651797749
0.00695407655189146
0.0072796381955278185
0.0075897809114944806
0.007885035605832076
0.008166619874422906
0.008436449663627978
0.008697143320222528
0.008952019180971457
0.009205089638534062
0.009461055660593388
0.009725304865749679
0.010003914514162564
0.010303658380933238
0.010632010669730983
0.010997085428834418
0.011406686474290578
0.011854648157107708
0.012123770545828777
0.00018489666107207627
0.00023407148225374757
0.00033477582251861387
0.0004644084235479556
0.0006220774059201019
0.0008081571187155623
0.0010227992228614288
0.0012657858449181744
0.00153647286959586
0.001833740456560989
0.0021559521669683984
0.002500930410912675
0.0028659559063275754
0.0032477976024823706
0.0036427771774002957
0.004046868893033903
0.004455831280773737
0.00486536240903617
0.005271266422667261
0.005669616930817213
0.006056903755816717
0.006430153455759371
0.006787019714478432
0.0071258452833831915
0.007445700472400752
0.007746404439814603
0.008028534330937882
0.00829342580029477
0.00854316749965097
0.008780591920895009
0.009009265607997084
0.009233482415568622
0.009458263202127823
0.009689364572746748
0.009933297515766566
0.010197354544898146
0.010489638321979973
0.010819032512158181
0.011194326864716511
0.011611216187999169
0.01186427355294834
0.00015268354792761306
0.00020104437603032121
0.0003015117609366892
0.0004328620505452125
0.0005942033068853942
0.0007858507156991478
0.001007923503188546
0.0012601870511984906
0.0015419741736615287
0.0018521111757239495
0.0021888533471980214
0.002549840606692119
0.0029320837449108156
0.00333198961050766
0.0037454300932410534
0.004167855036137965
0.004594443900562834
0.00502028583580165
0.005440573801072344
0.0058507967037715915
0.006246914369018176
0.006625503833622492
0.0069838704183943215
0.007320122498182699
0.007633213132386419
0.007922954458240183
0.008190011900084143
0.008435885132423172
0.00866288252188941
0.00887409501594727
0.009073375185243426
0.009265326281131343
0.009455305360715293
0.009649442988790712
0.009854680131856003
0.01007882034966445
0.010330589924346979
0.010619648890381706
0.010955809568978264
0.011336824982882111
0.0115711370127971
0.00012009849830095874
0.00016726237225497825
0.0002669297879355568
0.0003996004368280947
0.0005643874184559787
0.0007615571170604275
0.000991229328168594
0.0012532006837696233
0.0015468336852527164
0.0018709474899637555
0.002223719225432354
0.002602610586225268
0.003004334090728292
0.0034248702203987847
0.0038595417954670635
0.0043031455425254364
0.004750133828692808
0.005194833042276959
0.0056316803469836476
0.006055458435095094
0.006461509089029612
0.00684591028416265
0.007205607530079534
0.007538496610640832
0.00784346080191478
0.008120369981687673
0.008370051698619306
0.00859424522361616
0.00879554934901594
0.008977373786459592
0.009143902393547992
0.009300075049644271
0.009451592907902139
0.009604949975818759
0.009767491667077905
0.00994749816346482
0.010154284147861747
0.010398260784501125
0.010690267131862918
0.011030294714686166
0.011242951762853774
8.836141228645842e-05
0.00013377336276879643
0.00023177292261734913
0.0003650505767632548
0.0005327377314250375
0.0007350723315462294
0.0009722253575191996
0.0012440957521773197
0.0015501537727357875
0.0018892816937504753
0.0022596260235241395
0.0026584822718984723
0.0030822319663164335
0.003526347533309137
0.003985473946122424
0.004453587320583171
0.004924221039996785
0.0053907409428687846
0.005846644593946825
0.006285856866383371
0.006702995584389458
0.00709358643312999
0.007454214466278678
0.007782608605845614
0.008077663825030541
0.008339412199715677
0.00856895773249589
0.008768391494029724
0.008940702748827937
0.009089700070397614
0.009219953495114633
0.009336766226007426
0.00944618135313696
0.00955502687159803
0.00967099993024736
0.00980278861261325
0.009960222973308626
0.01015439989906647
0.010397151805138503
0.010690861003742513
0.010878767607715762
5.894175197757279e-05
0.00010182928796236064
0.0001969057367245492
0.00032967284870887535
0.0004993033628238756
0.0007060391229757114
0.0009501745337414468
0.0012318125516956782
0.0015506446259019526
0.001905719353151774
0.00229522518985732
0.00271631575130181
0.0031650045762387454
0.0036361515690309376
0.004123554402128129
0.004620146163049545
0.005118286346075483
0.005610119270300752
0.006087964070692157
0.006544696423575466
0.006974084669227868
0.007371051337861695
0.007731843517835579
0.00805410888142434
0.008336886469830006
0.00858053019966397
0.00878658806927902
0.008957661103841389
0.009097264223310067
0.009209707506613193
0.009300011755027421
0.00937386782463654
0.009437645427272674
0.009498454157009844
0.00956425763894925
0.009644040597186154
0.0097480239102166
0.009887879245896512
0.010076351348201524
0.010318338889255976
0.010478288409562104
3.3508097951666104e-05
7.284052851131826e-05
0.00016327638272689937
0.0002939284705257308
0.0004640447206555404
0.0006739106389453936
0.0009240433747939593
0.0012148970075140369
0.0015465461591025842
0.001918354334557083
0.0023286605049200213
0.0027745203394020047
0.0032515395414401383
0.003753831672221437
0.004274121795782492
0.004803999808945361
0.005334306276847456
0.005855612992125638
0.006358745168484254
0.006835285923467123
0.0072780082232055355
0.007681193412585686
0.008040815279777314
0.008354589628790406
0.008621907307452029
0.00884368071331647
0.009022139257616964
0.009160608818812529
0.009263305298287271
0.009335165730072129
0.009381732714847877
0.009409101608868355
0.00942393464243751
0.009433542877061035
0.009446035429537612
0.009470535503066828
0.009517465853571008
0.00959887590832495
0.009728321365340808
0.009913292428709615
0.01004206661340144
1.3821284728344218e-05
4.828240288718577e-05
0.00013185281549755383
0.0002582535801204141
0.0004268202722771964
0.0006379263688068265
0.0008924667866040949
0.0011914530550816184
0.0015355672656219787
0.0019246982445206735
0.0023574965059217716
0.0028309965113273742
0.0033403584526111745
0.003878779570875832
0.004437610723099614
0.005006688352296168
0.005574859426791344
0.006130643187000922
0.006662948337219318
0.007161754555347737
0.007618675426566036
0.008027344651392607
0.008383600301572066
0.008685475677005871
0.008933031799497592
0.009128082315157738
0.009273865665169172
0.009374714763984078
0.009435763950060131
0.009462720735851844
0.009461718264374438
0.009439255180805704
0.009402223263008932
0.009358019780779046
0.009314740314630815
0.009281449382955696
0.009268526866626237
0.009288096538347113
0.009354203732675988
0.00947721824083643
0.009571756750687348
1.5197893648948554e-06
2.9548403596063378e-05
0.00010358277053365476
0.00022305862730475924
0.0003873687090241343
0.000597105329313057
0.0008537498320868988
0.0011591406112393438
0.0015148700527960338
0.0019216476896944932
0.002378676345748401
0.0028831022916393782
0.003429617374178349
0.0040102910893173044
0.004614695208072951
0.005230345462459564
0.005843432245039252
0.006439755087208074
0.007005732740041979
0.00752934360401724
0.008000868735729156
0.008413353199702078
0.008762759916912792
0.009047844058619149
0.009269815784537717
0.009431876530374634
0.009538713703781398
0.009596023878966577
0.009610114250010106
0.00958761114548497
0.009535287201475064
0.009460006744050462
0.009368782518800833
0.009268934070251224
0.00916833938792078
0.009075772147197908
0.009001322226300226
0.008956859900819744
0.008956421184099008
0.009012627856505641
0.009070002741372249
0.0
1.7815920236201763e-05
7.932748263285372e-05
0.0001886349196317395
0.0003453444663075145
0.0005503843618108764
0.0008060646335442833
0.0011153943815687536
0.0014812811403073596
0.0019056728035774836
0.002388687281005072
0.00292781275954034
0.003517290656325333
0.004147808838905953
0.004806615935017923
0.005478113589881797
0.0061448947806588385
0.006789097684582877
0.0073938647569846624
0.007944669276408484
0.008430304873514002
0.00884341791923297
0.009180565009187108
0.009441868288291893
0.009630395963764565
0.00975141206895294
0.009811622920982473
0.009818514644381092
0.009779837679233853
0.009703260935572814
0.009596194449233764
0.009465765709660892
0.009318930074726424
0.009162696967385206
0.009004458654598778
0.008852414963390922
0.008716087537126176
0.008606931617906268
0.008538665578500412
0.008525724415613443
0.008542946801102897
0.00030973379213393947
0.0005092468350325121
0.0010763014836793344
0.002408898688890883
0.0029873297656802596
0.004312632567129948
0.0050325448324999595
0.006490382206414063
0.007184129831454055
0.008400226188032057
0.008893155063403532
0.009298131600022814
0.009613149811250731
0.009840583081160866
0.009986161170656012
0.010057850325228695
0.009247344507383369
0.009039029643636093
0.008260180657272081
0.00812935693465654
0.00803078960237094
2.1654360860643634e-06
1.3279474088518925e-05
6.239740487631717e-05
0.00016128007369650566
0.0007632604956306825
0.0014529553087661404
0.0018967344825419476
0.003625628262213908
0.005765764165356888
0.007826436222982461
0.010064812821741863
0.010016557949129683
0.009922335185734123
0.009790773164763884
0.009629739907236414
0.009446387405542605
0.008828066682336941
0.008621799738077954
0.008428917897353673
0.008051933465018398
9.118870182260404e-06
1.412975306479175e-05
5.1563483057407226e-05
0.000139949687434914
0.0002788820132677936
0.00047012654382010957
0.0007178638478835344
0.0010277334172992603
0.001405660367641947
0.001856550751981898
0.0023828792071012295
0.0029832880472918594
0.0036514011055826735
0.004375120109317751
0.005136668718151351
0.005913548573441772
0.0066803768912156785
0.007411336031744947
0.008082776990209537
0.008675462593587585
0.009176045233960805
0.009577593874962577
0.009879228263789086
0.010085094867478045
0.010202995648829143
0.010242961050277647
0.010215983946300331
0.010133036473573057
0.01000441001774778
0.009839360740052873
0.009646012964026854
0.009431464585883549
0.009202044384576261
0.008963685084849987
0.008722392771580007
0.008484807829033894
0.008258872973460252
0.008054608010655941
0.007885036044841844
0.007766179643625143
0.007721277686419285
1.8016883623911727e-05
1.6624919108017476e-05
4.361186034217747e-05
0.0001222950177912042
0.00025227225600238644
0.00043558040364630114
0.0006772039738075962
0.0009839733671327708
0.001363263676892718
0.0018215073041929306
0.0023625358144151185
0.0029858684706526735
0.003685193794776268
0.004447392557885967
0.005252470615665092
0.006074654698133056
0.006884644550182247
0.00765267908904758
0.00835179904783347
0.008960608688283252
0.009464999018212131
0.0098586169411916
0.010142202413975173
0.010322146232687564
0.010408696362085532
0.010414187863778365
0.010351549813566351
0.010233210850495139
0.010070419541148566
0.009872930784186858
0.00964898106790073
0.009405474677775838
0.009148317234808473
0.00888285389832994
0.008614390452346634
0.008348797757900548