# vtk DataFile Version 2.0
time_10.vtk
ASCII
DATASET UNSTRUCTURED_GRID
POINTS   4141  float 
9.712016981284866e-05         -3.295057142551933e-17        0.0                           
0.25000000000000094           9.231385371085703e-05         0.0                           
0.5000895794492126            -2.783874057635444e-17        0.0                           
0.75                          8.33539552615851e-05          0.0                           
1.0000798316226363            -2.227530476048187e-16        0.0                           
1.25                          7.190862897259821e-05         0.0                           
1.500067492449135             5.702293737778205e-17         0.0                           
1.75                          5.773286909288912e-05         0.0                           
2.000052390637673             -1.8518022349152278e-18       0.0                           
2.2500000000000004            4.0804475628763084e-05        0.0                           
2.5000345779647617            -1.8865556694184114e-17       0.0                           
2.75                          2.1326784097512307e-05        0.0                           
3.00001434896641              4.046758596554939e-17         0.0                           
3.25                          -1.242460479143923e-16        0.0                           
3.4999918487623614            -1.7542477192626352e-15       0.0                           
3.75                          -2.4632115286617605e-05       0.0                           
3.999966928415698             -3.510325417305931e-17        0.0                           
4.25                          -5.0390853145158507e-05       0.0                           
4.499940737728012             1.3990638213236332e-17        0.0                           
4.75                          -7.740592236667641e-05        0.0                           
4.999913326835147             4.784893264288617e-17         0.0                           
5.25                          -0.00010560158943785168       0.0                           
5.499884728906824             1.1100922211956519e-16        0.0                           
5.75                          -0.0001350601425412367        0.0                           
5.9998547971339224            -3.5226906586112207e-17       0.0                           
6.25                          -0.00016605991081687527       0.0                           
6.499823189501751             5.793840032776879e-16         0.0                           
6.75                          9.680896955890664e-05         0.0                           
7.000094513001301             6.697047379710067e-06         0.0                           
7.250007267052377             8.927795135865031e-05         0.0                           
7.500086298972556             8.498531182642214e-06         0.0                           
7.75000915381241              7.953371237843027e-05         0.0                           
8.000075720968884             1.0525370216642194e-05        0.0                           
8.250011233812582             6.718929504025011e-05         0.0                           
8.50006246034542              1.2676025481139377e-05        0.0                           
8.750013401946434             5.207198849511028e-05         0.0                           
9.000046418934856             1.4844867868030173e-05        0.0                           
9.250015555028446             3.42298228881685e-05          0.0                           
9.500027714591354             1.69370325585806e-05          0.0                           
9.750017602784618             1.3904831827214163e-05        0.0                           
10.000006616404024            1.8871686008322627e-05        0.0                           
1.9581847387307195e-05        0.2999912410427803            0.0                           
0.24998318218846083           0.3000208462783074            0.0                           
0.5000214059595184            0.29996649170408335           0.0                           
0.7499579048459248            0.30002249367380185           0.0                           
1.0000230235695051            0.2999402947479188            0.0                           
1.2499312844311479            0.30002406455218816           0.0                           
1.50002458098895              0.2999128725186098            0.0                           
1.7499034723606366            0.30002562169956426           0.0                           
2.000026152980482             0.29988426940469276           0.0                           
2.249874453391336             0.3000272555371799            0.0                           
2.500027834009502             0.29985434036023095           0.0                           
2.749844015325499             0.3000290623065946            0.0                           
3.0000297182235007            0.2998227419530679            0.0                           
3.2498117536592184            0.30003112700392187           0.0                           
3.5000123005317496            0.30009359000392566           0.0                           
3.750091096550927             0.3000145159695599            0.0                           
4.000015721212796             0.300085400431809             0.0                           
4.250082160933841             0.30001829769435234           0.0                           
4.500019654837768             0.30007482516444006           0.0                           
4.750070707382183             0.30002246818123973           0.0                           
5.000023908282507             0.3000615393617198            0.0                           
5.250056484480385             0.30002681556189603           0.0                           
5.500028267595063             0.3000454413487991            0.0                           
5.750039463661126             0.30003113393823816           0.0                           
6.000032536296581             0.3000266360588387            0.0                           
6.250019804042731             0.30003525746111337           0.0                           
6.500036575347551             0.30000533037856714           0.0                           
6.749997729336552             0.300039189913065             0.0                           
7.000040456878032             0.2999818677823056            0.0                           
7.2499736253482565            0.3000428072571938            0.0                           
7.500043916430921             0.2999566029853226            0.0                           
7.7499478564226045            0.30004605971169385           0.0                           
8.000047104787377             0.29992994413779744           0.0                           
8.249920790757018             0.30004917020359434           0.0                           
8.500050203358672             0.2999021020101964            0.0                           
8.749892564094818             0.3000523055359136            0.0                           
9.000053389220003             0.2998730752022618            0.0                           
9.249863105925986             0.30005565850436655           0.0                           
9.500056858232336             0.29984265280694045           0.0                           
9.749832135852166             0.30005942010178116           0.0                           
10.000060793406998            0.2998104228079435            0.0                           
9.431667857836418e-05         0.6000183973671663            0.0                           
0.2500200106851666            0.6000895736963395            0.0                           
0.5000868643887818            0.6000235415380478            0.0                           
0.7500254426188644            0.6000806690423764            0.0                           
1.000077149827177             0.600029464734589             0.0                           
1.2500315626317873            0.600069205968231             0.0                           
1.5000647650246266            0.6000358714082902            0.0                           
1.7500380579660595            0.6000549259637086            0.0                           
2.0000495284530726            0.6000424372629242            0.0                           
2.2500446086860504            0.6000377973545793            0.0                           
2.500031477696119             0.6000488694606028            0.0                           
2.7500509451780055            0.6000179740002917            0.0                           
3.000010809835329             0.60005497486951              0.0                           
3.2500569317146697            0.599995737343885             0.0                           
3.4999878674816327            0.6000607064318749            0.0                           
3.750062500958866             0.5999715210838426            0.0                           
3.9999630683070673            0.60006590251218              0.0                           
4.250067529379031             0.5999456755412118            0.0                           
4.499936761077677             0.6000706851698183            0.0                           
4.750072232460705             0.5999185391620503            0.0                           
4.999909240880339             0.6000753148699873            0.0                           
5.250076871167485             0.5998902723162028            0.0                           
5.499880594816427             0.6000800695629671            0.0                           
5.750081734259055             0.5998608144266359            0.0                           
5.999850687724087             0.6000852496643017            0.0                           
6.2500871209135616            0.5998298823915112            0.0                           
[...]
POINT_DATA  4141
SCALARS Con float 1
LOOKUP_TABLE default
0.0012176119024886534
0.0013344311627982838
0.0015667084159807134
0.0018393614816782583
0.002148733111960373
0.002495920814470502
0.0028817942023170663
0.003306594898846915
0.003769877953095197
0.0042705029494021
0.00480665267739334
0.005375875610539782
0.005975147369563093
0.006600943072043448
0.007249307978369797
0.007915903599753558
0.008596031315808212
0.009284570316632953
0.00997770046445617
0.010682256338265568
0.011478930024858131
0.012285573834112164
0.013018152031656823
0.013716169552915674
0.014419469621084032
0.015125932254225668
0.01583647539964897
0.01655263966922952
0.01727712801196067
0.0180135722110078
0.018766409625509857
0.01954077160650607
0.0203423866147645
0.021177487871755524
0.022052721033462144
0.022975048433547245
0.023951640972737543
0.02498963833265269
0.026094025318312876
0.02723639266870314
0.027892302268029148
0.0012421656174401467
0.0013619314151379419
0.0015991131538062794
0.0018770742827714502
0.0021921705569193607
0.0025454044674258123
0.0029375490526168105
0.003368743162395883
0.003838437995604364
0.00434539296456287
0.004887700190802749
0.005462834848777999
0.006067729032183148
0.006698867118125571
0.007352403660683741
0.008024326670320268
0.008710714965408062
0.00940866012286964
0.010117479566008352
0.010857617851168589
0.01161195828388739
0.012356537629873031
0.013084137963922
0.013806977087845163
0.014519716444636488
0.015231067814475347
0.01594389894006097
0.016661239340355474
0.017386491246181093
0.01812371098463485
0.018877620550353934
0.019653568904475303
0.0204574665037457
0.02129570808972803
0.022175087572792608
0.023102705540563106
0.024085861694781757
0.025131816370253787
0.026245611871891082
0.027399220574881377
0.028062333166945605
0.001230570117005088
0.0013501654959185959
0.0015876526347285873
0.0018665871523051844
0.0021832545470138014
0.002538635943463798
0.0029334678162087277
0.0033678475086257524
0.0038411828907019903
0.004352193185285641
0.0048989409090090105
0.005478894907229393
0.0060890272396436195
0.006725951691137075
0.007386126380679722
0.008066165984322289
0.008763440211960101
0.009476718477970308
0.010209548988436238
0.010940722092207799
0.011644229727840879
0.01235245474344205
0.013087428618871801
0.013818239759685736
0.014541017349827757
0.015257252146167704
0.015971458784765722
0.016687544955605312
0.017409616254251945
0.018142176534992466
0.01889026076692781
0.019659460452317534
0.020455899614368753
0.021286181898128607
0.022157320294888518
0.023076653751415318
0.024051744244834288
0.025090131912025627
0.026197151704822837
0.02734468754883158
0.02800429469089026
0.0012103000206792342
0.0013298942563792569
0.0015679679069778082
0.0018484852123014691
0.002167734226446302
0.0025266466469532805
0.002925896648340111
0.003365508513298365
0.0038448113328625674
0.004362444871988352
0.0049163979695300225
0.005504080278803235
0.006122430413189966
0.00676806569989228
0.00743747752069295
0.008127274118124568
0.008834299673703482
0.009555613888969408
0.010282379516708443
0.011003763646684062
0.011718928160998022
0.012432325908178827
0.013150068087522305
0.013873796837832738
0.014594129399520362
0.015309232970059337
0.016020732815105493
0.016732033530116028
0.01744722913437605
0.01817101270305752
0.01890865580428474
0.019666005192522238
0.020449457390149552
0.021265913110153252
0.022122714659150063
0.02302756806385362
0.023988441364560846
0.02501331395908875
0.026107972489925486
0.027244965516717564
0.027899448506356297
0.0011816583548738178
0.001301248575295384
0.0015402011181201122
0.0018229978881408593
0.0021459192036782926
0.002509828280093927
0.002915306874396258
0.0033622706002696084
0.0038499274021961305
0.004376786423049772
0.004940698171081679
0.005538925431210918
0.006168243780480923
0.006825065261983768
0.0075055659133010395
0.008205743562399495
0.00892130743645874
0.009646585623253011
0.010375063704357377
0.011101245785412333
0.011822372463025602
0.012540139249343652
0.013256971600663555
0.013972457951260783
0.014685307129933685
0.015393433431736634
0.016097331474470348
0.0167993882072768
0.017503305823568866
0.018213702523487706
0.018935960831017333
0.019676146560165923
0.0204409517963716
0.021237637788294718
0.02207396989400269
0.022958139897498307
0.023898663661025877
0.024904129934592848
0.025981016042180605
0.02710298896796991
0.02775029160678829
0.0011444042639747807
0.0012640312347437196
0.0015041900503356231
0.001790003477670061
0.0021177326815546415
0.0024881462860289892
0.002901702031109913
0.0033581689120133766
0.003856588169825699
0.004395282265762267
0.004971892202278636
0.005583440808681202
0.0062264169659037374
0.006896868520815683
0.007590475779169827
0.008302567190636082
0.00902797201235822
0.009761127016345914
0.01049649254586368
0.011229486763901949
0.011957541801662815
0.012679861973315555
0.013396548762499476
0.01410763186239283
0.014812444751383554
0.015510726151648788
0.016203072591921507
0.016891560800978884
0.017579595107495426
0.01827169306918748
0.018973307380353546
0.019690711595217444
0.020430916826921226
0.0212016008783194
0.02201103765876908
0.022868018782313426
0.023781753823110537
0.024761627168702335
0.02581506263818116
0.026917144449147726
0.027554780572133696
0.001098314022841475
0.0012180351893400444
0.0014597713578513754
0.001749386840202608
0.002083108908151719
0.0024615840860474315
0.00288511379550258
0.003353283089431735
0.0038649223396277584
0.004418113880123263
0.005010223944602299
0.005637957042522494
0.006297427576583866
0.006984238310088067
0.007693552374836047
0.00842014415614207
0.009158501383637257
0.009903028841194686
0.010648468571658309
0.011390435334145481
0.012125768046849603
0.012852571695509919
0.013569847026553184
0.014277035640408626
0.014973927575165585
0.015660749315077913
0.016338596006606136
0.01700965172337117
0.017677310037869758
0.018346109806125676
0.019021630972267344
0.019710393677592898
0.02041977365128271
0.02115792807356609
0.02193372463193517
0.02275666632262224
0.02363679846970476
0.024584478596716076
0.025608274320070373
0.02668498393133889
0.02731017598050148
0.0010432165403742133
0.0011631043291324625
0.001406823502540655
0.001701069694182085
0.0020420160375748575
0.0024301581746036453
0.0028656104686675824
0.0033477403654128116
0.0038751287192658013
0.0044455720587109684
0.005056108168777304
0.005703063488924444
0.006382119751387334
0.007088395917647473
0.007816542796471522
0.008560864532939026
0.00931548753242429
0.01007461451067966
0.010832850157481687
0.011585532581119525
0.012328971735270196
0.013060499089931973
0.013778363936657413
0.014481588636783825
0.015169879906337372
0.015843705827481687
0.01650442715639717
0.017154462047207643
0.017797364921835142
0.018437838352225986
0.019081686404892138
0.019735748254746114
0.020407829706467335
0.02110663836337415
0.021841720801642452
0.02262339686339382
0.023462678240576542
0.02437105176557917
0.025358418943710333
0.026403649169267743
0.027013258333385262
0.0009790597124913552
0.0010991893071082151
0.0013453124275718878
0.0016450426604296832
0.001994474319784775
0.0023939230873682624
0.0028432892269028348
0.0033416955247780288
0.0038874433224252653
0.004478007834545425
0.005110056275848149
0.005779489825503121
0.006481510509380062
0.00721071384509689
0.007961211031327254
0.008726787386184947
0.009501107609409715
0.010277966828266179
0.011051568796749721
0.011816787721454409
0.012569361558749378
0.01330598950161701
0.014024342982008369
0.014723035081349346
0.015401609115780295
0.01606056479389011
0.016701430707125823
0.01732683837770807
0.017940578342720788
0.018547615162305794
0.019154069694265054
0.019767179824726668
0.020395253409326377
0.021047620476638745
0.021734586158225013
0.022467381450270628
0.02325809937008541
0.024119498609328292
0.025063003156052435
0.026069934090253346
0.02666039870183256
0.0009059874620356495
0.001026416064724123
0.0012753428739481544
0.0015813986332961702
0.0019405708700957318
0.0023529676951572734
0.0028182546274951588
0.0033352924946809387
0.0039020844699267135
0.004515760215467702
0.005172583690912209
0.005867988785901861
0.006596647134400293
0.0073525718330368405
0.008129260231036927
0.008919878290013986
0.009717484679203874
0.010515285176045164
0.011306896122345002
0.012086587668658246
0.01284947871913014
0.01359166808528537
0.014310306240162312
0.015003629104075256
0.015670977790482564
0.016312824733164557
0.01693080701066213
0.01752776196267579
0.018107751175944188
0.018676067259253526
0.019239222269000024
0.019804924391331163
0.020382049602073467
0.020980613917050105
0.02161174777065307
0.02228767020812625
0.02302165086176789
0.023827844409154326
0.024719372361917912
0.025680405930370402
0.026247689397503732
0.0008244303640432013
0.0009451644683785568
0.0011972149221288616
0.0015103655876917883
0.0018804683414975524
0.0023074001509624962
0.0027905812302357028
0.0033286068265780005
0.003919177844781962
0.004559066853237892
0.005244109907860418
0.0059692319117235606
0.006728512828383749
0.00751529989461173
0.00832236800826613
0.009142126380274458
0.009966863972796305
0.010789019289711906
0.011601453947261904
0.012397706538651337
0.013172206459624747
0.013920436061460525
0.014639041035561955
0.01532589820370328
0.015980154845984283
0.01660225130730424
0.017193934870364493
0.017758266250885398
0.018299618740938887
0.01882366927043846
0.01933738368686376
0.019849000251750907
0.02036801622687142
0.020905180897512136
0.021472495926218617
0.02208322029152152
0.022751867671684883
0.023494084406384907
0.024324839886533858
0.025231561939097518
0.02577111638276132
0.0007352082889094367
0.0008561556811708203
0.0011114831569068659
0.0014323358492396865
0.0018144040680617224
0.0022573179758062357
0.002760257073026433
0.003321566466893133
0.00393865986929193
0.004607956768318909
0.005324849120111944
0.006083709468674407
0.006877951043990594
0.0077001464329754035
0.008542206080933546
0.009395611620028084
0.010251692214484317
0.011101925938695247
0.011938243967964564
0.012753314761232289
0.01354078896019727
0.014295492860105903
0.015013566821181844
0.015692552836347767
0.01633144010164631
0.016930679450033903
0.017492176406200478
0.01801927094640494
0.018516710315337935
0.018990620454586386
0.01944848136590245
0.019899111794197146
0.020352667550810603
0.02082065617820818
0.02131596791511154
0.02185291943988382
0.02244729772523041
0.02311629617899242
0.02387684443338141
0.024720029780145144
0.025226782223508458
0.0006396408033961093
0.0007605439897320007
0.0010190140966396693
0.0013478873394104848
0.001742675274399317
0.002202758940780191
0.002727103831607858
0.0033138467941652445
0.003960155301751302
0.004662120293646644
0.005414684224243163
0.006211621707221801
0.007045587559706748
0.007908240966580727
0.008790446596481951
0.00968254473375068
0.010574674168062428
0.01145712490624796
0.012320694112014625
0.01315701900164315
0.013958864507002754
0.01472035086956525
0.015437114754622134
0.016106405702137738
0.016727125932662287
0.017299825409925803
0.017826665646784742
0.01831136547674118
0.01875914113052168
0.019176651282492338
0.019571956390830626
0.01995449969113787
0.020335115343909818
0.020726066415266434
0.02114111224269318
0.02159560062526386
0.022106571274996097
0.022692766770565653
0.023373136839905786
0.02414281181124408
0.024611181170848585
0.0005396572540707351
0.0006600052360724893
0.0009210349707413846
0.001257790891530733
0.0016656053613418541
0.002143628617609927
0.0026906698651581644
0.0033047359340329205
0.003982824517138622
0.0047207507792609025
0.005513017428073235
0.006352753356159426
0.007231741981984618
0.008140551233699403
0.009068765879547901
0.010005310848385601
0.010938843177414139
0.011858181982153703
0.012752741809952919
0.013612935568648987
0.014430518790396302
0.015198855853221959
0.01591309937504373
0.016570284231565206
0.017169346198175155
0.01771108106067091
0.01819806317848897
0.01863454312841737
0.019026342866257224
0.019380764603192074
0.019706526557769704
0.02001373576663519
0.020313904734629407
0.020620015444896035
0.02094663046243853
0.021310045977164772
0.021728470819253963
0.022222132508769234
0.022811993124883436
0.023497571693407406
0.02392152669041781
0.0004378914751467052
0.0005568088097443019
0.000819163694376692
0.0011629965067554975
0.0015834873498079636
0.0020796026118427365
0.002650094841579959
0.0032929687096182794
0.004005178043593586
0.0047823551335059505
0.00561859462458355
0.006506329815133843
0.007436331166556253
0.008397843734145738
0.009378864347282459
0.010366542548334853
0.011347673972283773
0.012309243511445798
0.013238970376783185
0.014125808869584776
0.014960366642668043
0.01573521486559013
0.016445079435451374
0.01708691666732883
0.017659888673690644
0.018165261894487052
0.018606256236147374
0.018987873096060863
0.019316728076176484
0.019600910581226948
0.019849887423071214
0.020074463110789635
0.02028680465932866
0.0205005352383173
0.020730897284309442
0.020994981094877237
0.02131200288766421
0.021703529085938224
0.022192449216139293
0.022782957805002453
0.023156125572329354
0.0003377383799745546
0.00045385334869154086
0.0007154062880425151
0.0010645929022273072
0.001496504595507565
0.002010007263380152
0.00260395000298842
0.003276531777589911
0.004024860146833726
0.004844534890792904
0.005729306101713534
0.006670860095950831
0.007658774114359007
0.008680663867095694
0.009722525650733832
0.01076925084055045
0.011805267787952345
0.012815249837861873
0.013784820531419224
0.014701190125926513
0.01555367018761612
0.0163340322492938
0.017036698659754986
0.01765877449503578
0.018199946127852293
0.018662282646250538
0.019049980919150777
0.019369094251304994
0.019627279916254986
0.019833594042674804
0.019998354716284687
0.02013308707985395
0.020250558301014344
0.020364906026515122
0.020491861326330504
0.02064906612979344
0.020856475975217715
0.021136757319547075
0.021514548613851988
0.021998950979031776
0.0223147918872979
0.0002433344069311645
0.0003546370242767206
0.0006121083656157991
0.0009637383832185271
0.001404640799985294
0.0019336924230271108
0.0025500628160356037
0.0032524488129860147
0.004038411169988268
0.004903747765769117
0.005841974053205028
0.006843979018644653
0.007897915201151313
0.008989358789723073
0.010101745233626705
0.011217049720597378
0.01231664747989249
0.013382262940236226
0.014396905452935522
0.015345694723132944
0.016216499991511736
0.01700034804543576
0.017691589709547307
0.01828784568687938
0.018789776036906496
0.0192007307012466
0.019526341859300224
0.019774114435867192
0.019953061259325246
0.02007341778433616
0.020146459103941274
0.020184432115610513
0.020200607757465544
0.020209453606470962
0.02022692563464938
0.020270879390311875
0.020361609400561476
0.020522465842698706
0.020779616983636142
0.02114721476197476
0.02139924909569302
0.00015943136827962842
0.0002631293334606913
0.0005118400537085942
0.0008615963135376048
0.0013076097637707428
0.0018489014472541409
0.002485339041626936
0.0032165676847523707
0.004041033160866367
0.004955073180185974
0.005952148288474286
0.007022309855443904
0.00815199023107921
0.009324174383222306
0.010518967954029774
0.01171452104357923
0.01288821214385227
0.014017954001270191
0.015083464703289954
0.016067357782801057
0.01695594047359604
0.0177396622169731
0.018413210467227287
0.018975299225049706
0.019428227615269602
0.01977730068554871
0.020030202899437327
0.020196402357173023
0.020286644870872585
0.020312577033266516
0.02028651943827492
0.020221397335967083
0.020130826729586434
0.020029349189378844
0.01993280753717007
0.019858858873606902
0.019827624074197834
0.019862502946152577
0.019990520810944844
0.02023145241322903
0.02041362991452876
9.394556980128761e-05
0.00018349518279036297
0.0004173377624794013
0.0007593279391332725
0.0012047412518309156
0.001753135097009524
0.0024056239606167268
0.0031634053706828197
0.004026414916763413
0.004992030069120927
0.006053950219973021
0.007201382895655715
0.008418672304692443
0.009685470588563783
0.010977489738313782
0.012267783526246454
0.013528417117735307
0.01473230863928436
0.015854995870994384
0.016876099706798882
0.01778032126029333
0.01855789931662056
0.019204548132985094
0.01972096819110943
0.020112066538052694
0.020386033786890443
0.020553412060337638
0.020626258330299106
0.020617473411532604
0.020540334023879052
0.02040823964368244
0.020234668359394255
0.02003332706249258
0.019818478190161786
0.019605427800594842
0.019411161621505857
0.019255127412908978
0.019160087744943023
0.019152894811159647
0.019257655419839842
0.01936423951431575
4.674949957370348e-05
0.00012003064831855614
0.000331424881813667
0.0006578626192456933
0.0010949716845618943
0.0016433711642843234
0.002306038180155271
0.0030865348066101894
0.003987129354818659
0.005006982243425725
0.006140515166013466
0.007376167680208911
0.008695752356843863
0.010074589522332417
0.011482508796208591
0.01288566357093721
0.014248942707347733
0.015538634301032212
0.016724936935092465
0.017783953348623843
0.01869892037280121
0.019460593872741638
0.020066862539937665
0.020521778244987614
0.020834240770681335
0.021016572813902346
0.021083177095878976
0.021049408793643212
0.02093073473780085
0.020742201636570333
0.020498200745245106
0.02021249842955037
0.01989849652614327
0.019569690813887687
0.01924030515732748
0.01892609093661519
0.018645279085195834
0.018419708520553604
0.01827536224343701
0.01823980043107587
0.01826534788510125
0.0010057609396111884
0.0015519290407330858
0.0030274620065889424
0.006264114739003545
0.007600473031443769
0.01054246912044077
0.012079691185366588
0.015076654114833348
0.01645099607872546
0.018776678885903366
0.019684083016892177
0.020408465209317057
0.02095174829027424
0.021323120335028797
0.0215369847882999
0.021610916011620986
0.01971696415012709
0.01928387688542944
0.017687375442938743
0.01741753238156961
0.01719993734356259
2.167535314911039e-05
8.269884249396104e-05
0.0002708382452658561
0.000579428646737794
0.0022235861632403306
0.003968899522304563
0.005049356325636261
0.009036759137821206
0.013605739881736007
0.017693308615930197
0.02156387012040426
0.021414794139865946
0.02118168382781022
0.020881073234986735
0.02052790168074973
0.020135690093699324
0.018849004547723574
0.01842631159628034
0.018032307919822493
0.017251827386040575
1.5522022348306648e-05
6.184654392312859e-05
0.0002252111517372181
0.0005126481957457749
0.000921177366983236
0.0014540208727123064
0.0021187217580751947
0.002924549002479415
0.0038795506824523757
0.0049875917750869
0.006245520322056598
0.007640828917864752
0.009150251946842618
0.010739732601869006
0.012366026240400192
0.013979894676052176
0.01553046594158549
0.01697001427902357
0.01825828904635594
0.01936564360357919
0.020274541160849622
0.020979410406514118
0.02148515811026509
0.02180483255140481
0.02195696334337415
0.021963016623702068
0.021845261609998876
0.021625194081841295
0.02132254118184573
0.020954792113839982
0.020537161029700473
0.020082882840771605
0.019603757071808725
0.01911088040833188
0.018615538292790782
0.01813025018516183
0.0176700014675036
0.017253649159976684
0.01690562854114777
0.016655915746035074
0.01655596529610923
1.8836980251776686e-05
5.073761833580657e-05
0.00019086569903148455
0.0004579105162175931
0.0008491429715848116
0.0013687888839489651
0.0020265337709557897
0.002834416286899068
0.0038034877531390996
0.004940312352603111
0.006243533852252231
0.007700913734741122
0.009287421147621714
0.010964974804030907
0.012684249929800226
0.014388555590219747
0.016019258073041526
0.01752176359098562
0.01885088205474142
0.019974569526935663
0.02087551681990359
0.02155061332656637
0.02200876391015004
0.022267759122280135
0.02235089711577933
0.022283901224332582
0.022092462602654978
0.021800534088546604
0.02142935104997834
0.020997068403446593
0.020518871542856885
0.02000742653654424
0.01947356399981599
0.018927128205894553
0.01837795840530751
0.017837008466426187
0.01731759828253394
0.016836960077054812
0.01641737528391268
0.016092912122753843
0.01595223417997865
2.890165039539857e-05
4.6206384496714955e-05
0.00016202208581091222
0.00040690062494534734
0.000778666885284692
0.0012826625086983414
0.0019309589862418909
0.0027387909857846987