# vtk DataFile Version 2.0
time_10.vtk
ASCII
DATASET UNSTRUCTURED_GRID
POINTS   4141  float 
3.846528689504194e-05         -5.3993999917372747e-17       0.0                           
0.24999999999999922           3.6403458521438656e-05        0.0                           
0.5000352549979652            -1.1978345483000315e-17       0.0                           
0.75                          3.26854796845678e-05          0.0                           
1.0000312519595913            2.871975402747909e-17         0.0                           
1.25                          2.8063751489312034e-05        0.0                           
1.5000263028407694            -4.9259957511153e-18          0.0                           
1.75                          2.2440185381574846e-05        0.0                           
2.000020338859876             5.892942879847112e-17         0.0                           
2.25                          1.5805287662137497e-05        0.0                           
2.500013379856856             2.6002900594907414e-17        0.0                           
2.75                          8.238217311672947e-06         0.0                           
3.0000055395819416            -7.332782759669298e-18        0.0                           
3.25                          -5.568591111460558e-18        0.0                           
3.499996887256806             -4.901743656017232e-17        0.0                           
3.75                          -9.3972392621656e-06          0.0                           
3.999987393257116             2.9012050734822503e-15        0.0                           
4.25                          -1.9171519457121286e-05       0.0                           
4.499977477454962             2.6830916133876406e-17        0.0                           
4.75                          -2.9351225422250206e-05       0.0                           
4.999967173658656             7.479028670073349e-17         0.0                           
5.25                          -3.989805264572395e-05        0.0                           
5.499956502527901             7.939576733422558e-16         0.0                           
5.75                          -5.0838092841867884e-05       0.0                           
5.999945411790165             -4.7534155217170914e-17       0.0                           
6.25                          -6.227763220560804e-05        0.0                           
6.499933768580343             -3.0055319742711795e-15       0.0                           
6.75                          3.835741304035704e-05         0.0                           
7.000037364389057             2.8739539725068114e-06        0.0                           
7.250003074164065             3.515097593584156e-05         0.0                           
7.50003391471023              3.511020015647599e-06         0.0                           
7.750003745224479             3.114942850722765e-05         0.0                           
8.000029609847527             4.23802133060463e-06          0.0                           
8.25000449349588              2.6198413274128205e-05        0.0                           
8.500024322532886             5.014601395212604e-06         0.0                           
8.750005277080724             2.0228674529265258e-05        0.0                           
9.000018013193003             5.798421433284005e-06         0.0                           
9.250006054525363             1.3258848891927693e-05        0.0                           
9.50001072821108              6.551297730732326e-06         0.0                           
9.75000678955552              5.384755286496628e-06         0.0                           
10.000002575521044            7.240630223794306e-06         0.0                           
7.490689986527033e-06         0.29999667509418854           0.0                           
0.24999359539975813           0.3000079323704816            0.0                           
0.50000812642061              0.29998723997572185           0.0                           
0.7499839813251552            0.3000085000273342            0.0                           
1.00000868030309              0.29997732176488523           0.0                           
1.2499739265086647            0.30000903149047387           0.0                           
1.500009204550415             0.29996701398093095           0.0                           
1.749963497786193             0.30000955203374813           0.0                           
2.000009729311134             0.2999563410871157            0.0                           
2.2499526957668636            0.30001009843605847           0.0                           
2.5000102933129162            0.2999452514044817            0.0                           
2.749941441432357             0.3000107109978895            0.0                           
3.000010936490038             0.299933611655424             0.0                           
3.249929575745621             0.3000114265295292            0.0                           
3.5000053659608867            0.30003704496439354           0.0                           
3.750035982864103             0.3000061410630788            0.0                           
4.000006567421538             0.30003360505057014           0.0                           
4.250032274681339             0.300007486315647             0.0                           
4.500007973277638             0.30002930156643526           0.0                           
4.750027650233941             0.3000089868341123            0.0                           
5.000009507000579             0.30002400496280024           0.0                           
5.250022009164762             0.3000105581513891            0.0                           
5.500011083033142             0.3000176745968321            0.0                           
5.750015340069668             0.3000121174407822            0.0                           
6.000012622096683             0.30001035273859245           0.0                           
6.250007707379797             0.30001359710276493           0.0                           
6.500014066520147             0.30000212611441646           0.0                           
6.749999206124227             0.3000149904483408            0.0                           
7.000015434436938             0.29999313481510853           0.0                           
7.249989991657771             0.3000162514929312            0.0                           
7.500016633522687             0.2999835240613421            0.0                           
7.749980212629805             0.3000173647645306            0.0                           
8.000017718121413             0.2999734554597287            0.0                           
8.249970014983857             0.3000184114555777            0.0                           
8.500018756545247             0.29996301627083327           0.0                           
8.749959457466938             0.30001945769762994           0.0                           
9.00001981976651              0.2999522117237487            0.0                           
9.249948517895476             0.3000205821954947            0.0                           
9.50002098856565              0.2999409632461675            0.0                           
9.749937089417994             0.30002186565209404           0.0                           
10.000022341320081            0.29992910967153585           0.0                           
3.7493378103852605e-05        0.600008027779249             0.0                           
0.2500085898831744            0.6000354566630596            0.0                           
0.5000343182115116            0.600009835067688             0.0                           
0.7500105116760754            0.600031760957011             0.0                           
1.0000303289561616            0.600011952651809             0.0                           
1.2500127078397827            0.6000271333833106            0.0                           
1.5000253633226517            0.6000142634127631            0.0                           
1.7500150540505226            0.6000214710726383            0.0                           
2.0000193491693246            0.6000166376005579            0.0                           
2.2500174218737006            0.6000147619477554            0.0                           
2.500012302342057             0.6000189567319714            0.0                           
2.7500197015698973            0.6000070693594565            0.0                           
3.0000043043206053            0.6000211395899171            0.0                           
3.2500218331163357            0.5999985090697547            0.0                           
3.499995493840472             0.6000231604425666            0.0                           
3.7500237860330947            0.599989253404132             0.0                           
3.9999860381785224            0.600024960979206             0.0                           
4.250025517523976             0.5999794464184695            0.0                           
4.499976080026911             0.6000265872466863            0.0                           
4.750027107495291             0.5999692238015909            0.0                           
4.999965737903873             0.6000281380839005            0.0                           
5.250028656896631             0.5999586524944452            0.0                           
5.499955050511307             0.6000297241289527            0.0                           
5.750030281866611             0.5999477134866062            0.0                           
5.9999439693285375            0.600031468705833             0.0                           
6.250032106632211             0.599936298988473             0.0                           
[...]
POINT_DATA  4141
SCALARS Con float 1
LOOKUP_TABLE default
0.00023172627835897115
0.00024926930771308677
0.0002839649256508732
0.00032448323477715375
0.00037022950655652895
0.0004213290842225319
0.0004778773893499982
0.0005398796168859789
0.0006072416324426979
0.0006797681653336149
0.0007571650557289464
0.0008390451119275856
0.0009249369671588387
0.0010142958525488196
0.0011065145003442652
0.001200931000021402
0.0012968322662603076
0.0013934481760367197
0.0014901393677884955
0.0015878405769921156
0.0016976275476453947
0.0018077424802295352
0.0019066948162000767
0.002000814876081023
0.0020949351766411184
0.002188770890591666
0.002282450296469816
0.0023762185225103915
0.0024704943966410587
0.0025658384397654658
0.0026629360008804583
0.0027625827049358514
0.002865672143074173
0.002973184454218272
0.0030861750563195805
0.0032057628877405217
0.0033331162725006823
0.0034694162813667284
0.0036155294044426895
0.0037675349622431176
0.003855069363742357
0.00023529655651378386
0.00025324876121640656
0.00028864587683297805
0.0003299206013417027
0.0003764797677271887
0.0004284343547208501
0.0004858653952876706
0.0005487628584547082
0.0006170172780673196
0.0006904186216533637
0.0007686593699398096
0.0008513414866186152
0.0009379869998604809
0.001028051922313695
0.001120943597558319
0.0012160442528663827
0.0013127478548362746
0.0014105794110062155
0.0015093950865316895
0.0016116721172730847
0.0017151732857392315
0.0018169853618816099
0.0019158674633314096
0.0020131052889574303
0.0021083461524491927
0.002202701244284862
0.002296569867326472
0.00239039032178258
0.002484672599798361
0.0025800326582761067
0.002677193279727584
0.0027769788322710123
0.0028803070198127963
0.002988179386567791
0.003101671018524329
0.003221919201016762
0.0033501093608531594
0.0034874387769351445
0.0036347837446587413
0.0037882876052133764
0.003876787234799328
0.0002332862365894403
0.0002512296811500703
0.0002866997797806006
0.0003281510675127278
0.0003749768308019553
0.00042728293331014626
0.00048514325971911123
0.0005485400483908735
0.0006173559253668412
0.0006913734398723681
0.0007702791455135103
0.0008536722516547955
0.0009410782364450758
0.0010319684127340317
0.0011257883117572936
0.0012220008675992776
0.0013201667752298786
0.0014200382180887042
0.001521978090948036
0.001623274932887295
0.0017201322773313557
0.0018168243561217242
0.0019165577303469057
0.0020149917833921136
0.0021115311802351795
0.002206478416675703
0.0023004652518736615
0.0023940553221503684
0.002487853060043478
0.002582533476410666
0.0026788598744734377
0.002777687399021062
0.0028799602840918893
0.0029867056210489333
0.0030990250536359755
0.0032180847848004204
0.0033451024427875843
0.003481311005435106
0.0036276303338450165
0.0037802206313707256
0.003868223238762061
0.00022980099615564097
0.0002477694590617463
0.0002833767851392075
0.0003251203157393247
0.0003723894731430627
0.00042527959906610096
0.0004838525431008569
0.0005480771461973175
0.0006178219476004497
0.0006928554032272704
0.0007728508289575385
0.0008573962139029115
0.000946009318674774
0.0010381587245572648
0.0011332913395786025
0.0012308665824546472
0.001330376164914517
0.0014313434568478983
0.0015325529645848894
0.0016324403820349872
0.0017308735079846432
0.0018283783032458272
0.0019256954212306485
0.0020230896390816947
0.0021192726253528543
0.0022140051468793167
0.0023075552824687196
0.0024004273881503887
0.0024932295221943555
0.0025866637458884646
0.0026815249778148836
0.0027787012597772697
0.002879171127126592
0.0029839985733532406
0.0030943260524254478
0.003211365670746253
0.0033363870147617132
0.00347068208305807
0.003615236605782897
0.0037663178929935154
0.003853585036129955
0.00022487413421147333
0.00024287930273177516
0.0002786893025322292
0.00032085342105507065
0.0003687538308696774
0.0004224713677680255
0.0004820502959419466
0.0005474397966372668
0.0006184871782219419
0.0006949385081876802
0.0007764438172554389
0.0008625668458985507
0.0009527992119421245
0.0010465781796168124
0.001143305550084934
0.0012423583071283063
0.0013430778118148237
0.0014446332377791222
0.0015460748364148958
0.0016466112867116387
0.0017457994585442795
0.001843823211638904
0.0019409847182181269
0.0020371960208504345
0.0021322906259332846
0.0022260053306352202
0.0023184433862776547
0.0024099795294837494
0.002501174439208629
0.0025927233360421736
0.0026854368995764314
0.0027802315401263523
0.0028781229361634192
0.002980219827127444
0.003087717218725944
0.003201888274285185
0.0033240730925779946
0.003455644609980101
0.003597683985091778
0.0037466084289420123
0.0038328148581203824
0.00021846216271307595
0.0002365226387210211
0.00027260811661534285
0.00031532920676360276
0.0003640574002437686
0.00041885395966761974
0.000479739813349973
0.0005466378895317298
0.0006193666725000169
0.0006976408785607273
0.0007810763388296808
0.0008691988331139626
0.0009614562729900402
0.00105723268001368
0.0011558603465635922
0.0012566250757189124
0.0013587504871912983
0.0014614116671795522
0.0015637949771000403
0.0016652159481071044
0.0017652775096929489
0.0018638340355391718
0.001960873889476083
0.002056390714555009
0.002150293690825292
0.0022425696248712175
0.0023333385665549283
0.002422934778233557
0.002511883288986778
0.0026008690297186126
0.002690713352325854
0.002782359616407044
0.0028768634020767646
0.0029753848871968782
0.003079181854310003
0.0031896022276666127
0.003308073921217509
0.0034360723400764567
0.003574801026905833
0.0037208721616675986
0.003805667836119571
0.00021052166736095
0.00022865997418250092
0.00026510259347405183
0.0003085267840654889
0.00035828922791248915
0.0004144263069403024
0.00047692973209515063
0.0005456896489496161
0.0006204882911474081
0.0007010003816388293
0.0007867973846917196
0.000877355296663916
0.000972065370185834
0.0010702464508989219
0.0011711571243147039
0.0012740055111860006
0.0013779651825164383
0.0014822046039952997
0.0015859435308416775
0.0016885300999500848
0.0017894902373626822
0.0018885375543872807
0.0019855216289154853
0.002080363637971365
0.0021730461754815833
0.002263625756193186
0.0023522934450792322
0.0024394016564028946
0.002525477300318152
0.002611211001285152
0.0026974422113305277
0.0027851461019606965
0.00287542354743009
0.0029694933563689197
0.0030686857515095874
0.00317443598626606
0.0032882758016211703
0.003411803150593506
0.0035463695388415917
0.0036888285814414075
0.003771826958633838
0.00020101478058041016
0.00021925740669507474
0.00025614708602777396
0.00030043009928140674
0.0003514433429335499
0.0004091927861942095
0.0004736352273932182
0.0005446219700949633
0.0006218922705657882
0.0007050731892210203
0.0007936830782129095
0.0008871386000489911
0.0009847649962530815
0.001085809093429823
0.001189454563139045
0.001294840943811355
0.0014010889221104912
0.0015073365386055666
0.0016127859128366492
0.0017167507106625813
0.001818692044101084
0.001918226327977321
0.0020151105757903213
0.0021092211654610803
0.002200540623122697
0.0022891686604222922
0.00237533947922014
0.0024594426374241612
0.002542030996535636
0.002623819894864944
0.0027056795008321014
0.002788625811700713
0.0028738126489899936
0.002962525324302548
0.0030561756746180185
0.003156297637517887
0.003264541121172783
0.0033826448649267194
0.0035121326026954355
0.003650148315554146
0.0037309196122995735
0.00018991912476718425
0.00020829509461336475
0.000245727809784238
0.0002910328720090336
0.0003435216745104094
0.0004031641997886943
0.0004698771381631258
0.0005434677653080915
0.0006236267482560751
0.0007099270612566831
0.0008018265499191828
0.0008986743676764405
0.0009997214878125888
0.0011041353624310028
0.00121101907419267
0.0013194356311013327
0.0014284385715834878
0.0015371088578412695
0.0016445954833961278
0.0017501541161715612
0.001853175635422667
0.001953200370819364
0.0020499187191685953
0.0021431650652902886
0.0022329143698872262
0.0023192840807641697
0.00240254249673515
0.0024831165859670328
0.002561597023233124
0.0026387377195397615
0.002715451785380719
0.002792805888281669
0.0028720150239727993
0.0029544386453075155
0.0030415782948493807
0.003135076160267902
0.00323671241370414
0.0033483824602214074
0.0034718046959566636
0.0036044639486992962
0.0036825282870091842
0.00017723956145044155
0.0001957777437503593
0.0002338507823031021
0.00028034384790499384
0.00033453655437950695
0.0003963575592511178
0.00046567915619810874
0.0005422607394675417
0.0006257402454332063
0.0007156315104244638
0.0008113254898772102
0.0009120959940279114
0.0010171105756683057
0.00112544702205628
0.0012361157307406536
0.0013480880782463618
0.0014603303593388917
0.0015718418574529438
0.001681694062083336
0.001789066655608901
0.0018932759761623168
0.001993793228256491
0.002090252990369183
0.00218245532887123
0.0022703654503213873
0.002354114165563391
0.0024339993400397477
0.002510487536583082
0.0025842141593076283
0.0026559816257606286
0.0027267559820177254
0.0027976632891874654
0.002869986936019047
0.0029451667332571563
0.003024799970209297
0.0031106439904097336
0.0032046182269771756
0.0033087873584045097
0.003425083946933518
0.003551385002037187
0.0036262070171821214
0.00016302228131538461
0.00018174688379568268
0.00022055076920855405
0.0002683921522885564
0.0003245124301281264
0.0003887942581983416
0.00046106273184168045
0.0005410274172581706
0.0006282713068518801
0.0007222455920164284
0.0008222687296144209
0.0009275309690855319
0.0010371053807086022
0.0011499660399457606
0.001265013503651392
0.0013811070872634342
0.0014971026421267588
0.0016118935760835423
0.0017244519308491227
0.0018338658928757755
0.001939370422381948
0.0020403690906113797
0.002136447057652942
0.0022273768078406417
0.0023131191329077106
0.0023938214841019868
0.002469815196083659
0.002541611871527923
0.0026098993075893383
0.0026755370868260134
0.0027395525793563165
0.00280313823955508
0.002867651108088438
0.0029346150978803755
0.003005726187758405
0.003082860074756277
0.003168080242407824
0.003263628780780164
0.0033716677090559637
0.0034905173416496745
0.003561502739893889
0.00014737112706282425
0.00016629487158323442
0.00020590092796014784
0.0002552323192084754
0.00031348627263897506
0.0003804960852965707
0.0004560391344009623
0.0005397759356038464
0.0006312349149060742
0.0007298030215305547
0.0008347213597946892
0.0009450876112867848
0.0010598667563964535
0.0011779109528320488
0.0012979885390726371
0.001418821170656668
0.0015391270448613461
0.0016576672544850461
0.0017732916645972288
0.0018849806376806297
0.001991879460531915
0.0020933235723460315
0.002188854127933898
0.00227822491446053
0.002361402414358764
0.002438561168778559
0.0025100763800416995
0.002576515215729807
0.0026386281595929544
0.002697341401657329
0.0027537513468880604
0.0028091222056331974
0.002864887428256398
0.0029226554481714476
0.002984219748978139
0.003051572715468764
0.003126921229335623
0.0032126871099589925
0.003311271430008376
0.0034214872721825287
0.0034879821813013317
0.00013046581478953263
0.00014958014528975225
0.00019002261039437857
0.00024094835214124747
0.0003015059811961036
0.0003714783233008702
0.00045059791931514165
0.0005384808546480914
0.0006346049177004703
0.0007382937729054375
0.0008487072590726466
0.0009648403918318609
0.001085533210031443
0.001209492592026929
0.0013353258861845177
0.001461584792339238
0.001586816614781372
0.001709618984365066
0.001828693605249671
0.0019428947077704329
0.0020512686491500525
0.002153082469876137
0.00224784070495408
0.0023352913156004353
0.002415422605801524
0.0024884536488449967
0.002554820874420274
0.0026151631894699334
0.002670307891649996
0.002721259030682612
0.0027691897844916596
0.002815439913260856
0.0028615191117163544
0.002909116626179282
0.0029601170640130687
0.0030166217466793058
0.003080973539365629
0.0031557690516441166
0.003243650717454846
0.003343970377437001
0.0034052643503455194
0.00011258103683882084
0.0001318427667285064
0.00017309433819170884
0.0002256559023107853
0.00028862592158903266
0.0003617391588544576
0.0004446910238749228
0.0005370631567857733
0.0006382915740870403
0.0007476411699565288
0.0008641879435697792
0.0009868127111028896
0.0011142093722564144
0.0012449092624566137
0.0013773212722950129
0.001509785460505768
0.0016406360961028672
0.0017682687921224854
0.0018912058671142773
0.002008154343183682
0.002118052195049495
0.0022201001078407576
0.0023137780414898015
0.002398847682311815
0.002475343332501338
0.002543554575710295
0.0026040043938105667
0.002657426199601237
0.0027047427915629463
0.0027470497307338316
0.0027856049143117185
0.0028218257184531997
0.0028572944389972346
0.0028937723970161584
0.0029332225689982076
0.002977840045075988
0.0030300880385266994
0.003092724396724044
0.00316862633794309
0.0032577248995423126
0.0033130586377337163
9.410454202757426e-05
0.00011341848079764618
0.00015535850991035233
0.00020950140870136134
0.000274898840915752
0.00035124482612334054
0.00043821196559889726
0.0005353648473318199
0.0006421135423425359
0.0007576738035285155
0.0008810371898336711
0.0010109568708961002
0.001145953423866935
0.0012843427421182782
0.0014242855622157173
0.0015638552508312673
0.0017011180861793754
0.0018342184475412461
0.001961460736277663
0.002081380484287294
0.0021927988283012003
0.002294857042376729
0.0023870305949998116
0.0024691246629764073
0.0025412548966321034
0.0026038183508414942
0.002657459614237569
0.0027030369940961234
0.0027415926385955616
0.0027743297333090553
0.002802598829108944
0.002827894688927805
0.002851864288742919
0.0028763262329627535
0.002903301439776944
0.0029350545006849088
0.0029741436237441035
0.0030234640859470177
0.0030861116392447235
0.003162629015330028
0.0032112077032225997
7.555105552381108e-05
9.47484889764612e-05
0.0001371236734442022
0.0001926571855327681
0.00026036386001857984
0.0003399106763736342
0.0004309703126757123
0.000533118069590725
0.0006457641491710285
0.000768092176291417
0.0008990115871038758
0.0010371319055371658
0.0011807648744578288
0.001327957503369859
0.001476555285962867
0.0016242908017461775
0.0017688891935620774
0.0019081795061281065
0.002040200089553616
0.0021632874010867557
0.0022761403976057403
0.002377856580276031
0.0024679398261746644
0.0025462836217708036
0.0026131358486815677
0.0026690522730741604
0.002714846041065559
0.0027515394904946934
0.0027803232739549784
0.002802526336331247
0.0028195988960436646
0.0028331094955935084
0.002844756493052845
0.0028563938728088174
0.00287007119311997
0.0028880874757186677
0.002913057889420461
0.0029479804463332635
0.0029961414430630003
0.003058720765279116
0.0030997348461668565
5.7566367625577004e-05
7.638046399482314e-05
0.00011876026632473719
0.00017531177485556476
0.00024503197363976
0.00032757963296411384
0.0004226619963628595
0.0005299093691044578
0.0006487727595250163
0.0007784310550781286
0.0009177182178840677
0.0010650809199080572
0.0012185751667990212
0.0013759065954366122
0.0015345136678862562
0.0016916868812044592
0.0018447113254106008
0.001991016108407678
0.002128313059101715
0.002254709330419339
0.002368783193712955
0.002469618647554525
0.0025568006380978516
0.0026303777214385644
0.0026908021151630904
0.002738857998535184
0.0027755882100448425
0.0028022276877089154
0.002820149459715117
0.0028308269754088915
0.0028358143709903204
0.0028367451500080085
0.00283534879058938
0.0028334845906704278
0.002833192154500939
0.0028367584050480624
0.0028468021944984797
0.0028663690288532684
0.0028989044873378817
0.0029462381198807103
0.002978888974456394
4.0917789291120846e-05
5.895591532184139e-05
0.00010068576639837516
0.0001576606637396624
0.0002288731191113089
0.0003139978531108828
0.0004128366688076137
0.0005251416361775543
0.0006504642591366155
0.0007880204768046826
0.0009365822808936548
0.001094410950261919
0.00125924477336584
0.0014283490178917462
0.0015986281483451408
0.0017667902807558507
0.001929544891668415
0.0020838082473528144
0.0022268897993039335
0.0023566365729235784
0.0024715209937204124
0.0025706678711698277
0.0026538260433295116
0.0027212973469365512
0.002773839141989185
0.0028125567908151455
0.0028388001263312795
0.0028540742712643338
0.002859971243194966
0.002858125373513773
0.0028501930317655494
0.002837855641465667
0.0028228442397077863
0.002806983862089874
0.002792256399606456
0.0027808815359322454
0.0027754157662029733
0.0027788723574052377
0.002794770714720415
0.0028256606393462585
0.00284920473590122
2.6443259238725102e-05
4.3173128166206396e-05
8.336070119906145e-05
0.0001399048153363477
0.00021179307384542375
0.0002987860884800546
0.000400867475629745
0.0005180012491355285
0.0006499240529541907
0.0007959516461180966
0.0009548197360282146
0.0011245799594083775
0.0013025718679821486
0.0014854848764513033
0.0016695121932911467
0.0018505828590755196
0.002024642504131636
0.002187942510847708
0.002337295384993902
0.0024702613916765532
0.002585246613239739
0.00268151000162277
0.0027590926974757585
0.002818692599233211
0.002861510839087565
0.0028890944976999256
0.0029031943746780234
0.002905649900831747
0.0028983069729660287
0.002882969691226497
0.002861383957818897
0.002835249440947836
0.002806256412691408
0.0027761442086765152
0.0027467795093829516
0.0027202530956957497
0.0026989957143111042
0.0026859029117149713
0.002684443027313554
0.002697723280736409
0.0027114546109293027
1.5107553591017668e-05
2.979855763009997e-05
6.728037606210728e-05
0.00012220835535475333
0.00019362190122980101
0.0002814591746366224
0.00038598333359266473
0.000507492838121473
0.0006460294193373076
0.0008011050901861652
0.0009714677236070572
0.0011549386297342427
0.0013483554692758587
0.0015476466628451132
0.0017480448203499603
0.0019444206688188903
0.0021316911358871004
0.0023052362122906334
0.002461255576351482
0.0025970107003623105
0.002710925609735828
0.0028025502577357685
0.0028724152285546953
0.00292181966742948
0.0029525952945949033
0.0029668821485391217
0.0029669397323836854
0.002955005668859506
0.002933204468680216
0.0029035028546247517
0.0028677050553282805
0.0028274808724495
0.002784420346573935
0.0027401105856267012
0.0026962325506225474
0.0026546774677031113
0.0026176827110906027
0.0025879912887808755
0.002568933181763382
0.0025640808892310554
0.0025673237587147194
0.0001787821862322581
0.00026708574716123633
0.0004998884597422927
0.0009940707033426186
0.0011931109129577782
0.0016216759815039174
0.0018400998294080479
0.002253502245144853
0.002436569713587213
0.002733799785479615
0.0028437435644989573
0.0029275763193345647
0.0029865859552960354
0.0030229027959934947
0.0030391609468212065
0.0030382005145234
0.002756496296738173
0.0026993283422391814
0.002491215252498273
0.0024560452753556073
0.0024275716340893473
7.991762629912207e-06
2.086417207232938e-05
5.5433295450804544e-05
0.00010829127244629615
0.0003738709777884255
0.0006455858705765317
0.0008107291444046254
0.001404007329731333
0.002052815376089119
0.0025976327434685162
0.003022836536113156
0.0029957023959366305
0.0029591631472956677
0.0029152875999494225
0.002865866352247237
0.0028124639305517327
0.002642389532733971
0.0025873089262211297
0.002536074423125985
0.00243435491479934
4.951076278642645e-06
1.562540482246357e-05
4.675732476217624e-05
9.675297529772214e-05
0.00016494936644439963
0.00025172867112782616
0.0003580591582465384
0.000485070368456341
0.0006335894035143995
0.0008036876217605944
0.0009942648943578488
0.0012027344872610102
0.0014248809180987991
0.0016549561901766335
0.00188604364140353
0.0021106587065926195
0.0023214898708288265
0.0025121369575420685
0.00267770077906973
0.002815120141972768
0.0029232235651913993
0.0030025322443498104
0.003054897087538682
0.0030830654123429834
0.0030902599623853937
0.003079825084728361
0.0030549663395754113
0.0030185863379495826
0.002973205372686386
0.002920949111685368
0.002863585054129688
0.0028025928666814783
0.0027392576598198803
0.0026747804817028858
0.0026104043332592546
0.0025475573707248035
0.002488019770607567
0.002434114702189119
0.0023889455684122257
0.002356418380001376
0.002343411339352686
3.5844222841482633e-06
1.2168316478404182e-05
4.000245468547072e-05
8.717559423216509e-05
0.00015309040997877292
0.00023831204839603343
0.00034414991499535886
0.00047214914382262373
0.000623561523274323
0.0007988046386763674
0.0009969521673735729
0.0012153273979143757
0.0014492973365391921