# vtk DataFile Version 2.0
time_10.vtk
ASCII
DATASET UNSTRUCTURED_GRID
POINTS   4141  float 
1.0733045978820869e-05        1.2718436763660655e-17        0.0                           
0.25                          1.0146262845460765e-05        0.0                           
0.5000098209906821            1.691829910108888e-17         0.0                           
0.75                          9.096296998776357e-06         0.0                           
1.0000086934224373            -7.094168219338785e-18        0.0                           
1.2499999999999993            7.800064024581052e-06         0.0                           
1.5000073078546543            -1.5630641548964604e-17       0.0                           
1.75                          6.230370140070473e-06         0.0                           
2.0000056452079957            3.640601802555241e-17         0.0                           
2.25                          4.3845420520076485e-06        0.0                           
2.500003710912473             6.160049981291287e-17         0.0                           
2.7500000000000004            2.2843102209386198e-06        0.0                           
3.0000015360908034            9.147191615205131e-18         0.0                           
3.25                          4.434145273297472e-18         0.0                           
3.4999991409026414            7.230464999805789e-17         0.0                           
3.75                          -2.5942839402197505e-06       0.0                           
3.9999965198385077            1.357190424366086e-16         0.0                           
4.25                          -5.291091594618892e-06        0.0                           
4.499993785091252             3.676357340945589e-17         0.0                           
4.75                          -8.096224929759914e-06        0.0                           
4.9999909469999455            -1.1896971235034915e-18       0.0                           
5.25                          -1.0998716933344372e-05       0.0                           
5.4999880115783135            1.2962711787256133e-18        0.0                           
5.749999999999999             -1.4005533783943164e-05       0.0                           
5.9999849646084344            -1.4955538976313183e-17       0.0                           
6.25                          -1.71458604689831e-05         0.0                           
6.499981769530648             1.2192710073730676e-15        0.0                           
6.75                          1.0703923814369767e-05        0.0                           
7.00001042080084              8.1800785518414e-07           0.0                           
7.250000872199358             9.792934579757495e-06         0.0                           
7.500009443794198             9.906754224205884e-07         0.0                           
7.750001054285041             8.665781706956238e-06         0.0                           
8.000008233981907             1.188264251422049e-06         0.0                           
8.250001257770078             7.279697070442859e-06         0.0                           
8.50000675609511              1.3995976104531517e-06        0.0                           
8.750001471045366             5.6154772933861085e-06        0.0                           
9.000004999150155             1.6129376550236747e-06        0.0                           
9.25000168261867              3.6782465169242226e-06        0.0                           
9.500002975937658             1.8177115686455022e-06        0.0                           
9.750001882463437             1.4944444642800015e-06        0.0                           
10.000000716357725            2.004953155951786e-06         0.0                           
2.0724567163081923e-06        0.29999908410207765           0.0                           
0.2499982331236861            0.30000219176334675           0.0                           
0.5000022442296639            0.2999964783827603            0.0                           
0.7499955792505724            0.3000023450554076            0.0                           
1.000002393621391             0.2999937429285943            0.0                           
1.2499928073240283            0.3000024880952427            0.0                           
1.5000025345997527            0.2999909037462405            0.0                           
1.7499899360882003            0.30000262792575144           0.0                           
2.0000026755378215            0.29998796784670406           0.0                           
2.2499869659483993            0.30000277473931086           0.0                           
2.5000028271700856            0.2999849211662348            0.0                           
2.7499838752732226            0.30000293972456016           0.0                           
3.000003000597349             0.29998172703453824           0.0                           
3.2499806202382               0.3000031331360267            0.0                           
3.500001532748627             0.3000103345954725            0.0                           
3.750010032790687             0.30000174238467925           0.0                           
4.00000185795059              0.30000936029384057           0.0                           
4.2500089855424665            0.30000210741760547           0.0                           
4.500002239776502             0.30000815087466826           0.0                           
4.750007688579139             0.300002515480286             0.0                           
5.000002657043327             0.3000066704480552            0.0                           
5.250006114098072             0.3000029431657308            0.0                           
5.500003086032185             0.30000490776164973           0.0                           
5.7500042589532               0.3000033675008264            0.0                           
6.000003504752047             0.30000287456484637           0.0                           
6.250002141072021             0.30000376972043824           0.0                           
6.500003897143657             0.30000059524450223           0.0                           
6.749999787262309             0.3000041473700012            0.0                           
7.000004267402973             0.2999981087547776            0.0                           
7.249997240549375             0.3000044881848479            0.0                           
7.500004591303927             0.2999954554761931            0.0                           
7.749994542158555             0.30000478837459693           0.0                           
8.000004883461962             0.2999926797395099            0.0                           
8.249991732100037             0.300005069820243             0.0                           
8.500005162505067             0.29998980565393907           0.0                           
8.74998882670428              0.3000053507955773            0.0                           
9.000005448064911             0.2999868348344707            0.0                           
9.249985820025147             0.3000056530979537            0.0                           
9.500005762532487             0.299983745760091             0.0                           
9.749982682720482             0.3000059991490909            0.0                           
10.000006127714121            0.2999804940448272            0.0                           
1.04706596176345e-05          0.6000022932686031            0.0                           
0.2500024451705796            0.600009890825638             0.0                           
0.5000095683255782            0.6000027824759694            0.0                           
0.7500029660915901            0.6000088470375647            0.0                           
1.0000084445942095            0.6000033576411584            0.0                           
1.2500035630331323            0.600007549233728             0.0                           
1.5000070545205728            0.6000039863428585            0.0                           
1.7500042015569761            0.6000059689358704            0.0                           
2.000005378148442             0.6000046326020304            0.0                           
2.2500048460342055            0.6000041028585087            0.0                           
2.500003419951691             0.6000052635231026            0.0                           
2.750005465973335             0.6000019687212138            0.0                           
3.000001202741347             0.6000058563932832            0.0                           
3.25000604440103              0.5999995988557337            0.0                           
3.4999987650574678            0.6000064036603345            0.0                           
3.750006572761087             0.5999970408115629            0.0                           
3.999996153153658             0.6000068899604457            0.0                           
4.2500070399938945            0.5999943346702304            0.0                           
4.499993406628769             0.6000073279483075            0.0                           
4.750007467811551             0.5999915177903713            0.0                           
4.999990558083956             0.6000077446386017            0.0                           
5.250007883943546             0.5999886086567565            0.0                           
5.499987618264219             0.6000081705804547            0.0                           
5.750008320494136             0.5999856021470976            0.0                           
5.99998457391734              0.6000086399304497            0.0                           
6.250008811908759             0.5999824686556655            0.0                           
[...]
POINT_DATA  4141
SCALARS Con float 1
LOOKUP_TABLE default
1.8814704090642824e-05
2.0161423416805394e-05
2.2825641579849488e-05
2.5932436509909648e-05
2.9434756440796933e-05
3.334120544322507e-05
3.765820771892668e-05
4.238537613010479e-05
4.7514822951535144e-05
5.303102970246999e-05
5.891102267679379e-05
6.512482546414727e-05
7.163614146956804e-05
7.840318956416138e-05
8.537955664080696e-05
9.251483747240153e-05
9.97549548644937e-05
0.00010704172824473759
0.0001143266406849257
0.00012167377491199748
0.0001298868031144902
0.0001381129423533852
0.00014552088249606353
0.0001525623723042244
0.00015959226688925352
0.00016658982866931676
0.00017356540725455471
0.0001805382363152042
0.00018754060128910334
0.00019461546394489816
0.00020181521230163208
0.00020920059512206327
0.0002168398000694622
0.00022480762287135943
0.0002331846355578987
0.00024205632362684992
0.00025151204060085234
0.00026164223018197637
0.0002725135468859554
0.0002838322791929082
0.0002903509291119165
1.9092654372655498e-05
2.0470288658983613e-05
2.3187838334455495e-05
2.635200808829966e-05
2.9915866764003464e-05
3.3886918666328495e-05
3.827049372169843e-05
4.306504850867622e-05
4.8261532938341e-05
5.384330915627835e-05
5.978638911875273e-05
6.605996909537797e-05
7.262723794211544e-05
7.944644064664791e-05
8.64721974413761e-05
9.365727757983451e-05
0.00010095532410791643
0.00010832959479656167
0.00011576717879969619
0.00012344838809261446
0.00013120647050634762
0.00013882869759750945
0.00014622483798880037
0.0001534918175466477
0.00016060108970781945
0.00016763449289126272
0.00017462201106946296
0.00018159697767391664
0.0001885983313920488
0.00019567309800214041
0.00020287642095946333
0.0002102711662797097
0.00021792730475331596
0.00022592121347779636
0.000234334918604349
0.0002432552614534231
0.0002527728600190124
0.0002629793559916999
0.0002739421463408229
0.0002853724112479761
0.00029196289678440926
1.8934122755135618e-05
2.0311388643987217e-05
2.303502625596585e-05
2.6213271683495523e-05
2.979809655944774e-05
3.379658005617514e-05
3.821347284389444e-05
4.304661023040096e-05
4.828630730801211e-05
5.3915326755637096e-05
5.9909190104963366e-05
6.623683387338307e-05
7.286163978320677e-05
7.974290540342725e-05
8.683796742501971e-05
9.410539803296491e-05
0.0001015109232505909
0.00010903426695907134
0.00011670039947057187
0.00012430871017020257
0.00013158438448928898
0.0001388370782705887
0.0001462965419744482
0.00015364791972451896
0.00016084969552707971
0.0001679240740865238
0.00017491805815248517
0.0001818740481832594
0.0001888378387125924
0.00019586073919125376
0.00020300084252982415
0.00021032325353637408
0.00021789987992828063
0.0002258089617179914
0.00023413446332851693
0.00024296534413078817
0.000252394581544722
0.0002625164529159722
0.000273401636703109
0.0002847628463402296
0.0002913160549904088
1.8659586589266166e-05
2.0039236624544254e-05
2.2774283724193207e-05
2.5975890116280364e-05
2.9595655097703382e-05
3.3639794060725465e-05
3.811208646769484e-05
4.3009293930300544e-05
4.832060703216038e-05
5.4027662564189477e-05
6.0104918709557044e-05
6.652039684470049e-05
7.323681909613451e-05
8.021318964957375e-05
8.740685426951084e-05
9.477605518711492e-05
0.00010228144225542865
0.00010988622601932432
0.00011749973617207631
0.00012500726052523846
0.00013239797997354402
0.0001397087267998415
0.0001469922160789942
0.00015426731450492084
0.0001614409991182257
0.00016849706062755304
0.00017545615521895688
0.0001823565012551452
0.0001892442121948871
0.0001961726029124739
0.0002032020915877915
0.00021040019935801568
0.00021784134783952897
0.00022560648245159763
0.00023378256341783485
0.00024246192161222842
0.00025174137175887324
0.00026171957702994937
0.0002724721672265828
0.0002837200180206917
0.0002902179885981209
1.8271403096595177e-05
1.9654554821801964e-05
2.2406421967327892e-05
2.5641651854813766e-05
2.931117675956785e-05
3.3420024191274514e-05
3.797055782686297e-05
4.295797024274669e-05
4.8369766063338616e-05
5.4185812399783205e-05
6.0378731656240324e-05
6.691464218331632e-05
7.375422948948274e-05
8.08540927449341e-05
8.816818521939939e-05
9.564866439559089e-05
0.00010324521396377624
0.00011089514060840404
0.0001185275394827803
0.00012608320880682494
0.00013352862656964065
0.00014087610639230787
0.0001481468134248762
0.0001553340265311032
0.00016242601722158063
0.00016940461244324608
0.00017627871649278707
0.00018307726490356948
0.00018984304335045761
0.0001966289511005112
0.0002034966122491037
0.00021051565582593817
0.00021776324086475202
0.00022532360246029548
0.00023328756040690476
0.00024175194139558392
0.0002508187675269463
0.00026059271235735564
0.0002711565368617046
0.00028224228397025414
0.00028866030055490523
1.776604956240177e-05
1.915436121229843e-05
2.192906597079011e-05
2.5208838775032906e-05
2.8943650194005824e-05
3.313693123826253e-05
3.7789171247394385e-05
4.289347312710062e-05
4.84350623508022e-05
5.439134154612732e-05
6.073226313069757e-05
6.742100447102415e-05
7.441490039278194e-05
8.166651841968099e-05
8.912461759729432e-05
9.673461685850197e-05
0.00010443753779901293
0.00011217110885040449
0.00011987412349800269
0.00012749510131337673
0.00013500380816915738
0.00014238868473103058
0.00014964830599226693
0.0001567820578632762
0.0001637836894733507
0.00017065316538708374
0.00017740062800296566
0.0001840521868769517
0.00019064816008522898
0.0001972408035145847
0.00020389260188680567
0.0002106752066357053
0.00021766873135222354
0.0002249611941361362
0.00023264802969863882
0.00024083156285546165
0.00024962028969052313
0.0002591264599904584
0.0002694418966263786
0.00028031322172929527
0.00028662504828074484
1.7139939751128206e-05
1.8535399914613362e-05
2.133968916367558e-05
2.467572538584127e-05
2.8492165336215548e-05
3.279041664140937e-05
3.756862560839076e-05
4.2817288950231425e-05
4.851877158257928e-05
5.464734046944477e-05
6.11694962070628e-05
6.804457421392753e-05
7.522557527013235e-05
8.266013118085875e-05
9.029146431546594e-05
9.805919165644141e-05
0.00010590057015046883
0.00011375271046066985
0.0001215567481939033
0.000129263508329506
0.00013683716302099525
0.00014425598399312405
0.0001515085840431236
0.00015858923681614812
0.00016549716516509963
0.0001722374689377259
0.0001788255153479941
0.00018528882802997088
0.00019166797602919368
0.00019801574337350786
0.0002043960240539544
0.0002108828596611158
0.00021755971455078476
0.000224518920249886
0.0002318612278932595
0.0002396953703477887
0.0002481374799270203
0.00025730883661760043
0.00026731221877933267
0.0002779123502013265
0.0002840890406508849
1.6389840798412236e-05
1.7794780399437153e-05
2.0636101423190867e-05
2.4040923971099935e-05
2.7956175792810726e-05
3.2380793844611843e-05
3.73101265636404e-05
4.2731583115554304e-05
4.862413502873963e-05
5.49583146033021e-05
6.169648869191665e-05
6.879341135813515e-05
7.619702502179452e-05
8.38494791695722e-05
9.168832568490954e-05
9.964799433696544e-05
0.00010766172053710786
0.00011566426412911316
0.00012359538273264668
0.00013140335804875911
0.00013904766726471825
0.00014649958471666739
0.00015374111587616106
0.0001607634460948802
0.0001675659684980369
0.000174157083375355
0.00018055542882323337
0.00018679135641160136
0.00019290744472461063
0.00019895839371053577
0.00020501043123987892
0.00021114064770101483
0.000217436414687747
0.0002239949441184219
0.0002309229609862595
0.00023833642430348098
0.0002463601325250164
0.00025512572452693544
0.0002647487209234464
0.00027501559507546
0.0002810250291435653
1.551363025376568e-05
1.6930622417574412e-05
1.9816972484218612e-05
2.3303765829956156e-05
2.7335724506044722e-05
3.1908866821122984e-05
3.701532554140736e-05
4.263900311683367e-05
4.875502931114834e-05
5.532968812522258e-05
6.232062922838173e-05
6.967737871826541e-05
7.734216691255472e-05
8.525107226220584e-05
9.333550822882881e-05
0.00010152408966341195
0.0001097449599710916
0.00011792856869413813
0.00012601071502503074
0.00013393543423204142
0.00014165712962323665
0.00014914163893096585
0.0001563662725051025
0.0001633193600715924
0.0001699999659761404
0.00017641799874248357
0.00018259477842411592
0.00018856355277437777
0.00019436980554432434
0.0002000711735880063
0.00020573711429032235
0.00021144847859772093
0.00021729713887318563
0.00022338572808589929
0.00022982751738926258
0.0002367463663062846
0.0002442766013067169
0.0002525613629379428
0.00026173055036248785
0.0002715961363736804
0.0002774025256698055
1.451119237600765e-05
1.594286063408919e-05
1.888244270640684e-05
2.2464704509598165e-05
2.6631640912500812e-05
3.137592258026257e-05
3.66861136902847e-05
4.2542293145918456e-05
4.891540592743678e-05
5.576707504971116e-05
6.304971671566799e-05
7.070700237826394e-05
7.867472177018588e-05
8.688206913442273e-05
9.525337856022523e-05
0.00010371029905265301
0.00011217437940482146
0.00012056994902380154
0.00012882706834093372
0.00013688422692263602
0.0001446904676166089
0.0001522067339715229
0.00015940647592845207
0.00016627577440103266
0.00017281326151050055
0.00017903009773635246
0.00018495001818916073
0.00019060937735605255
0.00019605711016282772
0.0002013545325419095
0.00020657506238540687
0.00021180394269703376
0.00021713805317572795
0.00022268588057904986
0.0002285676540090468
0.00023491560616266255
0.00024187421616897088
0.0002495990180747174
0.00025823569393314803
0.0002676255145846433
0.0002731890123193103
1.33855024172126e-05
1.4834187724064028e-05
1.7834814668984683e-05
2.1525734350474318e-05
2.5845681126389703e-05
3.078359763330083e-05
3.6324243827407544e-05
4.244369881342822e-05
4.9108521462538384e-05
5.627537310776121e-05
6.389097025083257e-05
7.189246728718632e-05
8.020833417286955e-05
8.87597845610945e-05
9.746275005740824e-05
0.00010623036423387184
0.00011497584681127527
0.0001236156173803104
0.00013207239592969726
0.0001402780128735732
0.00014817569340562798
0.00015572164788383295
0.00016288600055596586
0.00016965314425681772
0.0001760217394775829
0.00018200451080249724
0.00018762795314537404
0.00019293198634461335
0.00019796958698788458
0.0002028064024142547
0.0002075204272504631
0.00021220179369490933
0.0002169527512889613
0.00022188788147144245
0.00022713454553162325
0.0002328335419873675
0.00023913980890751625
0.0002462218209239182
0.0002542421267282435
0.0002630750652974136
0.00026835152723209707
1.2143887546892801e-05
1.3611140008571262e-05
1.667930234344846e-05
2.0490786285651127e-05
2.4980567798491474e-05
3.01335877228592e-05
3.5930737392527136e-05
4.234412500486403e-05
4.933591757961832e-05
5.6857649035729635e-05
6.484992161598786e-05
7.324263806082615e-05
8.195587009250827e-05
9.090143061895327e-05
9.998512951785555e-05
0.0001091096423772532
0.00011817782003716365
0.00012709621722884815
0.0001357785530848517
0.00014414884116499432
0.00015214393428780677
0.00015971535902493776
0.00016683039275937255
0.0001734724863920761
0.00017964115866171064
0.0001853515410954574
0.000190633719986101
0.0001955320023927786
0.00020010419128045604
0.0002044209714284788
0.00020856547114989036
0.0002126330827222024
0.00021673159552217607
0.00022098167074004074
0.0002255176695409841
0.00023048878071307906
0.00023606029510463367
0.0002424137451460755
0.0002497291963661162
0.0002579176881953228
0.00026285864320234613
1.0799449848051206e-05
1.2285291553143192e-05
1.5424805380110164e-05
1.9366057064232548e-05
2.4039886289071032e-05
2.9427129347173757e-05
3.550501109848776e-05
4.224198895786577e-05
4.9596095324356384e-05
5.751375709351802e-05
6.592910599626794e-05
7.476396369944636e-05
8.392866606062281e-05
9.332380204999916e-05
0.00010284284873921063
0.00011237557004824019
0.00012181195455120158
0.00013104638288517
0.0001399816871186011
0.00014853277457447487
0.00015662953382806452
0.00016421889244912718
0.00017126594380876498
0.00017775426072718623
0.0001836855118038866
0.00018907860797705235
0.00019396857503135086
0.00019840533196106266
0.00020245257560757286
0.00020618684863677115
0.0002096969645717827
0.00021308382001925452
0.00021646068356173643
0.00021995397539138005
0.00022370452959703132
0.00022786929231008817
0.00023262330228610026
0.00023816071982512652
0.00024467923515134114
0.0002521299537908785
0.00025668282778633947
9.372572398719568e-06
1.0874484004229e-05
1.4084626466805897e-05
1.8160198926581932e-05
2.302775263029867e-05
2.8664201335814552e-05
3.504367127422537e-05
4.213169921110942e-05
4.988280821816111e-05
5.823860128740286e-05
6.712646724545258e-05
7.64591887487003e-05
8.613567563863864e-05
9.604293208518704e-05
0.00010605921456302026
0.00011605820745848754
0.000125913870132523
0.00013550555894558257
0.00014472296011609843
0.0001534704041863701
0.00016167025040359626
0.00016926512115172525
0.00017621897407946302
0.00018251708691583321
0.00018816518809115082
0.00019318797936099437
0.00019762735155167278
0.0002015405558475726
0.0002049985516608661
0.00020808473236979007
0.000210894136984899
0.00021353326822638047
0.00021612054803601008
0.00021878744901147738
0.0002216802731737886
0.00022496254645923942
0.00022881783705809542
0.0002334518654870902
0.000239079394924664
0.00024569454860764734
0.0002498032426428887
7.892385273976657e-06
9.40396874339977e-06
1.2677032117502279e-05
1.688427771759338e-05
2.194820876868913e-05
2.7842382565908347e-05
3.4538908058210494e-05
4.200169935890046e-05
5.018291771246206e-05
5.9019996053639686e-05
6.843343451283327e-05
7.832584553297307e-05
8.85825391318584e-05
9.907380820127774e-05
0.00010965886294544514
0.00012019111270289647
0.00013052436285317432
0.00014051931224312174
0.0001500497231526148
0.00015900769515643244
0.00016730760730719444
0.0001748884985767709
0.00018171486957160475
0.00018777608896694269
0.00019308469250374147
0.00019767400611420965
0.00020159542386151804
0.00020491578005939993
0.00020771503697922597
0.00021008457231194504
0.00021212617395964338
0.00021395185905804292
0.00021568454372818151
0.00021745958713652536
0.000219427191790779
0.00022175560549892495
0.00022463499364315488
0.00022828081695654736
0.0002329236473766752
0.0002386029832065038
0.0002422088570718368
6.3979283981579505e-06
7.9072474382879e-06
1.122548601478133e-05
1.555143524821343e-05
2.0804315694854172e-05
2.6955400122248067e-05
3.397653440389619e-05
4.183208915063321e-05
5.047379640664307e-05
5.983610676746235e-05
6.983267885892653e-05
8.035458345858735e-05
9.12706752993378e-05
0.00010243035004009433
0.00011366858188346167
0.00012481286662341368
0.00013569136502908545
0.0001461413938907942
0.0001560173529894299
0.0001651972708719154
0.00017358740935878277
0.0001811246545735577
0.000187776748856669
0.00019354067624681776
0.0001984397133202253
0.00020251967663221856
0.00020584496740491017
0.00020849486995707194
0.00021056043602625977
0.00021214227853973855
0.00021334935321692453
0.00021429882292128821
0.00021511702741990185
0.00021594151354729598
0.0002169241496098044
0.0002182352636637886
0.00022006875871521755
0.0002226472203705009
0.00022621489764588574
0.0002308585080668699
0.00023390189557579154
4.938630165136933e-06
6.426269982312746e-06
9.758394544920727e-06
1.4176168314444772e-05
1.9597023930932427e-05
2.599143600678532e-05
3.333363744463154e-05
4.1591823859996895e-05
5.072031374512216e-05
6.065253679698037e-05
7.129563020931678e-05
8.252744696750387e-05
9.419660092872772e-05
0.00010612588237873665
0.00011811893638656689
0.0001299696215373564
0.0001414730344875985
0.00015243690079531585
0.0001626919689936665
0.00017210026682070337
0.0001805604155264574
0.00018800976601010712
0.00019442353573496124
0.00019981152755638095
0.00020421324553626059
0.00020769223340674675
0.00021033039582968492
0.00021222297484099574
0.0002134744966713714
0.00021419605613677906
0.00021450394644093157
0.00021451970029837505
0.00021437146700970677
0.0002141966810399631
0.00021414595765132733
0.00021438822210057706
0.00021511714721041716
0.00021655833342933814
0.0002189673585715929
0.00022247902215667527
0.00022490109624791503
3.573785413862213e-06
5.010625933553987e-06
8.308036731344924e-06
1.2773645231852742e-05
1.8324159225217188e-05
2.4931181708784943e-05
3.257598833151987e-05
4.1235683280316266e-05
5.0871639103590384e-05
6.141926893440716e-05
7.277996614723084e-05
8.481634226466294e-05
9.735173184064993e-05
0.00011017450993269894
0.00012304715268369556
0.0001357191842806896
0.00014794248448372845
0.00015948692681600306
0.00017015430485929544
0.0001797888165646613
0.0001882830743285329
0.00019557942974974122
0.0002016671317120874
0.00020657636870821677
0.00021037048332696778
0.0002131376138469929
0.0002149828054394052
0.00021602134083763394
0.0002163737356301382
0.00021616256884459764
0.00021551116358764876
0.00021454400261543657
0.00021338874621145947
0.00021217969737765422
0.00021106263772824034
0.00021020097988384958
0.00020978327688107417
0.000210032259169213
0.0002112085082351377
0.0002135001237047846
0.00021524613046636625
2.368858455252576e-06
3.71482811866289e-06
6.910380578313089e-06
1.1359624173338789e-05
1.6978564138475137e-05
2.3745501215118146e-05
3.165553852264715e-05
4.070157756258269e-05
5.085839035627696e-05
6.206792639004017e-05
7.422744296903287e-05
8.718202289454839e-05
0.0001007230783648806
0.0001145938416946048
0.00012850185531339186
0.00014213731127241203
0.00015519478567302045
0.00016739524049807318
0.00017850500585116433
0.00018834918241213676
0.00019681806061364802
0.00020386660374536618
0.0002095081240751917
0.00021380408059449655
0.0002168520062484292
0.00021877346400412865
0.00021970336909928875
0.00021978151509971495
0.00021914667846458362
0.0002179333093490161
0.00021627058572808367
0.00021428357790836361
0.0002120962009481102
0.0002098357543987543
0.00020763889454348972
0.00020565895869492336
0.00020407469446451196
0.00020309966129857394
0.00020299028669589183
0.0002039759297326169
0.00020499383920154394
1.40059473641168e-06
2.5997190111253523e-06
5.604637124290039e-06
9.947133947864527e-06
1.554702954205352e-05
2.2396668747416317e-05
3.0512564121939203e-05
3.991279711411877e-05
5.0594571473668175e-05
6.251343509692114e-05
7.556572673800796e-05
8.957681275384775e-05
0.00010429764120922089
0.00011941157494329784
0.00013455183585833457
0.0001493279765110509
0.00016335748378160239
0.00017629746169908587
0.0001878709875860414
0.00019788421811025908
0.00020623245805675365
0.00021289581755253004
0.0002179268998211447
0.000221433894050597
0.00022356231826311845
0.00022447809839904918
0.00022435358496615716
0.00022335737730734743
0.00022164793210759922
0.0002193706976184903
0.00021665814535123118
0.00021363219011637886
0.00021040850474834036
0.00020710243106652766
0.0002038362824034978
0.00020074811609348698
0.00019800191170376864
0.0001957995063402388
0.0001943867019276139
0.00019402756458162106
0.0001942675838460911
1.4375097255727706e-05
2.1277703795672535e-05
3.935083246983401e-05
7.736834094779842e-05
9.257841744418273e-05
0.00012514169867477412
0.0001416354041128193
0.00017263331482478487
0.0001862495420164552
0.00020815215555846858
0.000216156482928918
0.00022219511550952315
0.00022638008752727746
0.00022888320552884967
0.0002299102639075387
0.00022967886595468432
0.0002082685553319694
0.00020401731508840054
0.0001885846896331831
0.00018597849107520524
0.00018386650285456748
7.642511468534461e-07
1.8340218415534732e-06
4.631164216084534e-06
8.83001386315222e-06
2.958553958003379e-05
5.060074072388862e-05
6.330847566261848e-05
0.0001086349328047775
0.00015762418976522768
0.00019815603157407216
0.00022840165406884489
0.00022627527358666153
0.0002234746192654254
0.00022015132947425856
0.00021643567405981663
0.00021244075491803273
0.00019979024342442727
0.0001957055843652926
0.00019190850948792897
0.00018437028170936162
4.7094227694775385e-07
1.3784054358916901e-06
3.921132215374655e-06
7.909446553497088e-06
1.3288096776414418e-05
2.008461453869193e-05
2.836991544604156e-05
3.822513911436866e-05
4.9705886406110024e-05
6.280755707782537e-05
7.743400043996944e-05
9.337444624766517e-05
0.00011029426628263116
0.00012774446139755677
0.00014519174121834866
0.00016206629128200195
0.00017781922138508262
0.0001919783675270613
0.0002041914123732912
0.00021424866551265364
0.0002220839384661578
0.0002277568488121572
0.00023142344660234327
0.00023330251682215914
0.0002336437829747307