# vtk DataFile Version 2.0
time_10.vtk
ASCII
DATASET UNSTRUCTURED_GRID
POINTS   4141  float 
2.9591297632027583e-05        9.885646024198273e-18         0.0                           
0.2500000000000009            2.799326487082799e-05         0.0                           
0.5000271048156563            -4.87276295782633e-16         0.0                           
0.75                          2.512023775505813e-05         0.0                           
1.0000240145330122            8.47569504320251e-17          0.0                           
1.25                          2.1558119479913874e-05        0.0                           
1.5000202026271778            4.547168916482098e-16         0.0                           
1.75                          1.723151578716768e-05         0.0                           
2.000015616213892             -2.2981581998164272e-17       0.0                           
2.2500000000000004            1.2133066141216817e-05        0.0                           
2.500010270436837             5.1427547189624905e-18        0.0                           
2.75                          6.3233034756134036e-06        0.0                           
3.0000042521406334            4.7090028613975706e-18        0.0                           
3.25                          -5.709411334356329e-17        0.0                           
3.499997615861856             -1.1713201798250108e-15       0.0                           
3.75                          -7.1988160609731534e-06       0.0                           
3.9999903425750998            -1.6115510059698036e-16       0.0                           
4.25                          -1.4685120754476867e-05       0.0                           
4.499982749136278             1.5697635346328385e-16        0.0                           
4.75                          -2.2477861591263475e-05       0.0                           
4.9999748628614835            -4.291734937983212e-17        0.0                           
5.25                          -3.054713075172519e-05        0.0                           
5.499966700009383             1.5795318204710852e-16        0.0                           
5.75                          -3.8912632180448035e-05       0.0                           
5.999958220761518             -1.275471061512547e-17        0.0                           
6.25                          -4.765568799436156e-05        0.0                           
6.499949323361052             1.2123449935482458e-15        0.0                           
6.75                          2.950939843612919e-05         0.0                           
7.000028739199933             2.2275649066472035e-06        0.0                           
7.250002379750072             2.7025874751143306e-05        0.0                           
7.500026070551087             2.7121141983477853e-06        0.0                           
7.750002890419139             2.3936740760958198e-05        0.0                           
8.000022750135473             3.2657719920433734e-06        0.0                           
8.250003460424438             2.01233890738641e-05          0.0                           
8.500018680151745             3.857536427977789e-06         0.0                           
8.750004057573591             1.5532581103045694e-05        0.0                           
9.000013830161208             4.454868793755748e-06         0.0                           
9.250004650009078             1.0178573926193542e-05        0.0                           
9.500008235709807             5.0284432509808955e-06        0.0                           
9.750005209896152             4.134829631649451e-06         0.0                           
10.000001979711731            5.553308797893317e-06         0.0                           
5.743115502636526e-06         0.29999745550757456           0.0                           
0.24999509526160943           0.30000607851586597           0.0                           
0.5000062259601074            0.29999022611173937           0.0                           
0.7499877301889167            0.30000650959075653           0.0                           
1.0000066463403146            0.2999826307621568            0.0                           
1.2499800316274858            0.30000691256236317           0.0                           
1.5000070436875839            0.29997474143851094           0.0                           
1.7499720512336145            0.30000730690781213           0.0                           
2.000007441195437             0.2999665772443129            0.0                           
2.2499637897848683            0.30000772088910327           0.0                           
2.500007868625176             0.29995809880309043           0.0                           
2.7499551869077203            0.30000818549846114           0.0                           
3.000008356704674             0.2999492040453873            0.0                           
3.249946120719701             0.30000872908748333           0.0                           
3.5000041649508544            0.30002849672507403           0.0                           
3.750027674039557             0.3000047539164591            0.0                           
4.000005078212488             0.30002583557900464           0.0                           
4.250024808544353             0.3000057776532221            0.0                           
4.500006148517957             0.30002251623738446           0.0                           
4.750021244367033             0.3000069207072404            0.0                           
5.000007317091803             0.3000184391608086            0.0                           
5.250016904396794             0.30000811817379985           0.0                           
5.500008518179898             0.3000135731264438            0.0                           
5.750011779882713             0.3000093063845772            0.0                           
6.000009690839556             0.3000079506556671            0.0                           
6.250005920425688             0.3000104333575314            0.0                           
6.500010790655512             0.30000163887116804           0.0                           
6.749999399694707             0.30001149312847886           0.0                           
7.000011830420474             0.2999947455959994            0.0                           
7.24999233702471              0.3000124510274757            0.0                           
7.500012741072513             0.29998738260665425           0.0                           
7.74998484667932              0.3000132958537665            0.0                           
8.000013563757646             0.2999796734513543            0.0                           
8.249977040198923             0.3000140891456578            0.0                           
8.500014350554569             0.2999716850746523            0.0                           
8.749968962785406             0.30001488165081464           0.0                           
9.000015155952193             0.2999634217081805            0.0                           
9.24996059765232              0.30001573382802466           0.0                           
9.500016042027164             0.2999548233026577            0.0                           
9.749951863040877             0.3000167077598275            0.0                           
10.000017069111589            0.2999457663748563            0.0                           
2.8853405467948377e-05        0.6000062311767832            0.0                           
0.2500066581319081            0.6000272746584071            0.0                           
0.5000263938987957            0.6000076049761678            0.0                           
0.750008119899042             0.6000244187546508            0.0                           
1.0000233142307886            0.6000092171809898            0.0                           
1.2500097924887046            0.6000208522087959            0.0                           
1.5000194897270798            0.600010977837719             0.0                           
1.7500115803860272            0.600016496007143             0.0                           
2.000014864994754             0.6000127872163628            0.0                           
2.250013384854173             0.6000113409455329            0.0                           
2.500009452315004             0.6000145541962029            0.0                           
2.750015121465821             0.6000054359201528            0.0                           
3.000003314608253             0.6000162160939614            0.0                           
3.250016743638131             0.5999988702243606            0.0                           
3.499996558603578             0.6000177525608554            0.0                           
3.7500182278036602            0.5999917759883338            0.0                           
3.9999893126962625            0.6000191198941391            0.0                           
4.250019542186843             0.5999842641286383            0.0                           
4.499981686610085             0.600020353332568             0.0                           
4.750020747595679             0.5999764385737548            0.0                           
4.999973771079642             0.6000215283130471            0.0                           
5.250021921268812             0.5999683506651303            0.0                           
5.499965595862428             0.6000227297034577            0.0                           
5.7500231523414405            0.5999599859800935            0.0                           
5.999957123922529             0.6000240522383624            0.0                           
6.250024536290832             0.5999512620328521            0.0                           
[...]
POINT_DATA  4141
SCALARS Con float 1
LOOKUP_TABLE default
0.00013941432087001595
0.00014973557076759268
0.00017016203041155846
0.00019400572776934175
0.00022091247613468764
0.0002509533284619603
0.0002841820222437333
0.0003205994305280645
0.00036014821604475833
0.00040271177854791867
0.0004481155850762092
0.0004961306306525896
0.0005464786763837181
0.0005988386377118654
0.0006528530909385043
0.0007081330542766758
0.0007642602648641344
0.0008207837694786986
0.0008773284831694058
0.0009344149151280866
0.0009983993505395198
0.0010625373791071982
0.0011202456281385123
0.0011751219707382544
0.0012299582111587454
0.001284590353244792
0.0013390959205495283
0.0013936210581340133
0.0014484133511254967
0.0015038032714974516
0.001560194415469733
0.001618055076648701
0.0016779111120773598
0.0017403393410818351
0.0018059610342301693
0.0018754351152905138
0.0019494499622835805
0.002028701908699876
0.002113702952846477
0.002202164959225295
0.0022531038709160734
0.00014153833914835054
0.00015209944377702963
0.00017293826674182774
0.0001972261246182364
0.00022460976058463907
0.0002551517623652703
0.00028889740849456487
0.00032583862807455076
0.00036590908129156125
0.0004089834984436642
0.0004548794941488712
0.000503361670801074
0.0005541478491669754
0.0006069172625389198
0.0006613207517203744
0.000716994539578801
0.0007735815754669294
0.0008308003698211968
0.0008885584200956677
0.0009482806867652102
0.0010086650461897109
0.0010680329982567201
0.001125671759973115
0.0011823354716932319
0.0012378078719688572
0.0012927314479763475
0.0013473391350022502
0.001401888286765232
0.0014566789928422853
0.0015120737236912762
0.0015684977276973695
0.0016264359473101792
0.0016864282244846798
0.0017490637969697085
0.0018149753462951826
0.0018848324434051484
0.001959333387918148
0.0020391839230640566
0.002124901796818839
0.00221423660282641
0.0022657377162839817
0.00014034049046375495
0.0001508973320043415
0.00017178062029427518
0.0001961741375712828
0.00022371645339973087
0.00025446703749105115
0.0002884668576102889
0.00032570319196139843
0.00036610494186483815
0.0004095423563790764
0.0004558294233849379
0.0005047289404162897
0.0005559604862129459
0.0006092118546848823
0.0006641555877183238
0.0007204740174832944
0.0007779057355910027
0.0008362995345836172
0.0008958585080981492
0.0009550104100863143
0.0010115809041051909
0.0010680200018601954
0.0011261544551865578
0.0011834946395388147
0.0012397057596232309
0.0012949616327511777
0.0013496291065899935
0.0014040373120233574
0.001458540529909761
0.0015135351268166079
0.0015694696345003654
0.0016268467010176972
0.001686221443499954
0.0017481978220328601
0.0018134238337721969
0.001882585743114102
0.0019564004642925333
0.0020355944343662838
0.0021207108988131845
0.0022095102402723246
0.0022607210607306304
0.000138264687070574
0.00014883765450119903
0.0001698044719981963
0.00019437307775851007
0.00022217953400458749
0.0002532769347072032
0.0002876989988062788
0.00032542495687895595
0.00036637525659683823
0.00041041168169706193
0.0004573402431290696
0.0005069169194573168
0.0005588564848309055
0.0006128448013754224
0.0006685548544088401
0.0007256666727025851
0.0007838789780672287
0.0008429096386051486
0.0009020511810299484
0.0009604014382395352
0.0010178791702820913
0.00107478076746928
0.0011315270609434768
0.0011882680884301835
0.001244266236351246
0.0012993884940141075
0.0013537930433234822
0.0014077754140637319
0.0014616921555698494
0.001515955307430663
0.0015710316715977302
0.0016274428946326475
0.0016857639028347142
0.001746619968534683
0.0018106826773312175
0.0018786648492816283
0.0019513135194942478
0.0020293894558056644
0.0021134744122473393
0.0022013917863813836
0.0022521728173874565
0.00013533005857753168
0.0001459266951886683
0.0001670167861654284
0.00019183738878345735
0.00022001995820419433
0.00025160880553548674
0.0002866270717058545
0.0003250421990020888
0.00036676192821133116
0.00041163466231774657
0.00045945251033645377
0.0005099569983007508
0.0005628473704854496
0.0006177910106744817
0.0006744345571308934
0.0007324103231724028
0.0007913305141395167
0.0008507088532225721
0.0009099924538981964
0.0009687199406140456
0.0010266314594453037
0.0010838281097010677
0.0011404799342541385
0.0011965348838472536
0.0012518984550236446
0.001306422908181504
0.001360172714354517
0.0014133694464161107
0.0014663428653034025
0.0015195013826213104
0.0015733210843095376
0.0016283401018213222
0.0016851548698942724
0.0017444165429703095
0.0018068271015603435
0.0018731347180879435
0.0019441273191057847
0.0020206127241011776
0.0021032283306795397
0.002189884834006032
0.0022400449830183057
0.00013151048175147814
0.00014214242888415177
0.00016340000051264354
0.00018855437127554133
0.00021723027176371318
0.00024946018189846505
0.00028525322063519465
0.0003245611076259895
0.0003672743653080834
0.0004132227130705841
0.0004621779353350118
0.0005138590770681586
0.0005679396209782061
0.0006240557521045591
0.0006818136318662904
0.0007407927546491246
0.0008005372568332934
0.0008605642212950313
0.0009203980486101377
0.0009796386023736908
0.0010380520901046896
0.0010955506635435994
0.0011521249631507482
0.0012077703464761114
0.0012624356638907866
0.00131611657822643
0.0013688872117915097
0.0014209463396787985
0.0014726036867313602
0.0015242621484628136
0.0015764042666747365
0.001629583921108028
0.0016844207003125344
0.0017415955342164678
0.00180184672044058
0.0018659657014478454
0.001934791290146845
0.002009190763054083
0.002089872582965143
0.002174861164964802
0.002224196064887176
0.000126779691467175
0.00013746098153987054
0.00015893560623638064
0.00018451142352559697
0.00021380390074492148
0.00024683049421811085
0.0002835827776163255
0.0003239928492755298
0.00036792959509281
0.00041519893089397196
0.00046554631797338537
0.0005186613717688104
0.0005741842186949493
0.0006317128413198649
0.0006908103672854988
0.0007510110418095321
0.0008118297352771764
0.000872779135879913
0.0009334024554645482
0.0009933179353400678
0.0010522475227655594
0.0011100226859236653
0.001166554760979852
0.0012217980061684037
0.0012757438694723836
0.0013284282454895607
0.0013799662591154514
0.001430567423409029
0.001480542966300737
0.0015302994746668895
0.0015803302602736238
0.0016312077935272497
0.0016835779524631781
0.0017381556003323857
0.0017957209192384822
0.0018571158520577268
0.001923239302532893
0.001995029551760734
0.002073280973131188
0.002156158975180484
0.0022044430467979314
0.00012111449681088469
0.00013186160178294213
0.0001536079138734396
0.00017969871593455751
0.0002097371719257057
0.0002437223853675649
0.0002816249667194425
0.00032335376370466816
0.00036875200767087275
0.0004175972469800213
0.00046960342988580964
0.0005244250850674306
0.000581663435151274
0.0006408741487150594
0.0007015764377473619
0.0007632643491192516
0.000825421643484725
0.0008875429404414525
0.0009491608719688893
0.0010098736604534683
0.0010693659902639345
0.001127413678657909
0.0011838752685131315
0.0012386798282814583
0.0012918193457504056
0.001343355062174193
0.001393427333688954
0.0014422674535870745
0.001490202009537621
0.0015376522305810287
0.0015851294713519369
0.0016332299902069739
0.001682630359627504
0.0017340838920807964
0.0017884179075409467
0.001846531350105918
0.0019093914357933756
0.0019780179513475197
0.0020533052390782633
0.00213358820233168
0.002180570859208837
0.00011450062620786679
0.00012533164687245044
0.00014740809861676435
0.00017411210555163035
0.00020503104219238484
0.00024014230496850126
0.0002793924108415328
0.00032266383031377975
0.0003697707642257471
0.0004204585383150841
0.00047440516346998685
0.0005312251935713466
0.0005904760010797521
0.0006516665034023173
0.0007142685262280184
0.000777731152719298
0.000841498705483956
0.0009050323276721969
0.0009678336742890855
0.0010294674324578701
0.0010895779623629328
0.0011478976208689833
0.001204247143634469
0.0012585321127877838
0.0013107409102494042
0.0013609457141886378
0.001409307164987609
0.0014560786768556368
0.0015016091267950537
0.001546342403597882
0.0015908149530746904
0.0016356524781515993
0.0016815669521570787
0.0017293544872290444
0.0017798941372039786
0.0018341472848702745
0.0018931563587086873
0.0019580317532473246
0.002029780711132942
0.0021069369819554863
0.002152338700562703
0.00010693965149893229
0.00011787276492604316
0.00014033888847576122
0.0001677562428408345
0.00019969259251337852
0.00023610040883628914
0.0002768995111770118
0.0003219436397571321
0.00037101543458634243
0.0004238249280216288
0.0004800103340705995
0.000539141516143619
0.0006007265025678166
0.0006642213013860504
0.0007290431625374332
0.0007945873197617471
0.0008602469481293557
0.000925435480036663
0.000989609541744534
0.0010522899661246099
0.0011130783854553666
0.0011716678154373471
0.0012278475431916265
0.001281504249068382
0.0013326216485741993
0.0013812805656429608
0.001427659553649415
0.0014720356033967618
0.0015147840027098717
0.0015563770903383551
0.0015973821726329664
0.001638459396413854
0.0016803602376154639
0.0017239271080793487
0.0017700941762543668
0.0018198891320104905
0.0018744346887093885
0.0019349390162440043
0.0020025334360455364
0.0020759803361482224
0.0021194895759791606
9.845730616725703e-05
0.00010950814737894422
0.00013241985788346757
0.0001606477530392128
0.00019373606709268158
0.00023160951687912763
0.0002741594910751405
0.00032120975519531447
0.0003725099729569461
0.0004277326960608736
0.00048647290923158466
0.0005482508170746411
0.0006125184706195303
0.0006786706073156131
0.0007460597577661428
0.0008140153163862069
0.0008818657828892984
0.0009489628488448742
0.0010147054543937796
0.001078561699557217
0.0011400866756038361
0.0011989350966596932
0.0012548687083392468
0.001307759414280435
0.0013575895937547222
0.0014044508622547156
0.001448542172474368
0.001490167429831085
0.0015297328878271942
0.0015677443972438808
0.001604804970370056
0.0016416131888291618
0.0016789629784793427
0.0017177450941041137
0.0017589503759292333
0.00180367451312357
0.0018531231060895889
0.0019086066347097155
0.0019713891959685613
0.0020404914350795893
0.0020817626977130414
8.911315133178192e-05
0.00010029083013204095
0.00012369315418570438
0.00015281823973634746
0.00018718315184449087
0.00022668280601361454
0.0002711797658626005
0.000320468168450018
0.0003742647900679107
0.0004322036079198409
0.0004938333564459234
0.0005586191161616278
0.0006259488060745007
0.0006951450697316765
0.000765482506577131
0.000836209644074248
0.0009065744243664743
0.000975851452549211
0.0010433688766594798
0.001108532750556606
0.0011708470305056967
0.0012299281076647048
0.0012855136184507393
0.0013374661401925622
0.0013857728675055723
0.00143054253167489
0.0014720007334116166
0.001510484561641504
0.0015464372978331708
0.0015804038045223875
0.0016130272331762417
0.0016450476201614623
0.0016773028144607943
0.0017107320016036091
0.0017463818353564624
0.0017854148495019592
0.0018291189528745718
0.0018789080684187677
0.001936184425551009
0.002000255535878942
0.00203890904534456
7.90114078079226e-05
9.031276603986777e-05
0.0001142293472886543
0.00014431673507873298
0.0001800620818493319
0.00022132978386316105
0.0002679551898092288
0.0003197054041281782
0.000376266469364055
0.00043723416210309353
0.0005021084549832411
0.0005702931508728212
0.000641101931951634
0.00071377146081448
0.0007874814120034884
0.000861380479021974
0.000934616631547988
0.001006369304325728
0.0010758808898446751
0.001142484998602911
0.0012056293964026103
0.0012648923733252222
0.0013199921343548247
0.0013707897955372072
0.001417287075646763
0.0014596202312861812
0.0014980518061979745
0.0015329615873393768
0.001564838138956658
0.001594271842926035
0.0016219503975067255
0.0016486573672277432
0.0016752742657766442
0.0017027863793318428
0.0017322922782167468
0.0017650166374629378
0.001802325156783365
0.0018457321072438424
0.0018967789570264397
0.0019550866409395345
0.0019907101260448023
6.831236583682671e-05
7.971412581916302e-05
0.00010413282334817437
0.0001352110576567299
0.00017240505771489397
0.00021555007951221523
0.00026445871031963907
0.0003188767654071277
0.0003784645831651684
0.0004427821612231233
0.0005112789263792804
0.0005832903368729501
0.0006580431083078933
0.0007346699210172418
0.0008122333814333488
0.0008897578522257658
0.0009662667079266223
0.0010408218369131013
0.0011125619290250504
0.0011807362442718817
0.001244731323303156
0.0013040890524045703
0.0013585157366659804
0.001407882865344652
0.0014522211354736484
0.001491709725220654
0.0015266630158761152
0.0015575168065928681
0.0015848157773436147
0.0016092036655647396
0.001631417180218845
0.0016522844267208897
0.0016727282658807305
0.0016937748016063493
0.0017165669065793373
0.0017423823846429603
0.0017726554330139265
0.0018089925746213873
0.0018530704600746338
0.0019048467593200467
0.001936999958371783
5.7243291980374476e-05
6.869179074539542e-05
9.354588386484939e-05
0.0001255873892071331
0.00016424351804440678
0.0002093246894163239
0.00026062909226990224
0.0003178913515647236
0.0003807551931325631
0.0004487502045407004
0.0005212745558852507
0.000597587069279237
0.0006768111393420355
0.000757951704004683
0.0008399249149552572
0.0009215984389230427
0.001001838942114228
0.0010795622295157574
0.001153781188813854
0.0012236471214262864
0.001288481067633484
0.0013477932525478996
0.0014012904353327515
0.0014488723833151276
0.0014906197740903182
0.0015267764935228657
0.0015577292750600807
0.001583987582669074
0.0016061659546888348
0.0016249706510995008
0.0016411917568312463
0.0016557015256150709
0.001669459308920772
0.0016835232003101664
0.0016990683006557006
0.0017174112508734636
0.0017400398287692096
0.0017686387752386644
0.0018050102652052615
0.0018494673916434772
0.0018776897861667917
4.6106973210067387e-05
5.7505403727661775e-05
8.26502659062421e-05
0.0001155474674761692
0.00015560106999712016
0.00020260476847677012
0.0002563557916752718
0.0003165937714034074
0.000382960911074586
0.00045496601713459095
0.0005319568874416135
0.0006131057605506417
0.0006974113009222487
0.0007837188506600385
0.0008707583963718107
0.0009571973345988293
0.0010417028968862257
0.001123007667622979
0.0011999712202427437
0.0012716316022455048
0.0013372421576806355
0.0013962915020405162
0.0014485068690886767
0.001493843076982158
0.0015324608795190006
0.001564698913152285
0.001591043604912627
0.0016121006949600734
0.0016285712606683765
0.0016412342880019915
0.001650936949241597
0.0016585932020180857
0.0016651908522864831
0.0016718069977799364
0.0016796317370279092
0.0016900000157748071
0.0017044309583586987
0.0017246672160203045
0.0017526200306269394
0.001788972533446571
0.0018127953484730662
3.5284610863478626e-05
4.647834502673479e-05
7.16648495388272e-05
0.00010520296522029028
0.00014648489188944397
0.00019529879225841927
0.0002514612555063788
0.0003147428758170784
0.0003848079647819599
0.00046116016954564636
0.0005431001694174724
0.0006297015663810352
0.0007198099503722267
0.0008120677949185988
0.000904964563439208
0.000996907793196931
0.0010863075127732391
0.0011716641539976204
0.0012516495476506786
0.0013251720133268332
0.0013914193721299218
0.0014498775400028504
0.0015003259824616516
0.0015428142477686658
0.00157762558647265
0.0016052340839829331
0.001626261267762959
0.0016414370471731776
0.001651568256757668
0.00165751697931399
0.0016601894460183961
0.0016605357450870718
0.0016595599955183983
0.001658340557576062
0.001658059916705377
0.0016600441791313396
0.0016658128105512566
0.0016771342302167665
0.00169601047124729
0.001723501742995701
0.0017424627357108147
2.5230839891004998e-05
3.599075813168916e-05
6.0837095929630756e-05
9.467005667307295e-05
0.00013687797043774333
0.00018725790769394572
0.00024568130783108883
0.00031198894038528453
0.00038590198475287225
0.00046694287062232947
0.0005543721944749742
0.0006471505786003936
0.0007439329691262343
0.0008430997903851053
0.0009428247244054758
0.0010411728987909073
0.0011362180191451918
0.0012261631732196168
0.001309449506011559
0.0013848393446392038
0.0014514654860773865
0.0015088445124910468
0.0015568577249182897
0.0015957074679801367
0.0016258585341133132
0.0016479743425809978
0.0016628560526016135
0.001671390563027344
0.001674511002689131
0.001673171326243789
0.0016683351791291412
0.0016609783389514455
0.0016521036638161904
0.0016427675126336405
0.0016341168602924806
0.0016274368840900077
0.001624209049258052
0.0016261813344441577
0.001635396984047471
0.0016533341511614397
0.0016670031175895074
1.6444317110764057e-05
2.6458061880621924e-05
5.044101385902454e-05
8.406855788746022e-05
0.00012672513313220486
0.00017825852892543452
0.000238646719190493
0.00030785367012630614
0.00038570682004703184
0.00047178346001394515
0.0005653179676048453
0.000665142165408388
0.0007696710444391418
0.0008769418411332457
0.0009847072903042358
0.0010905743507117083
0.001192170616194409
0.0012873142460770118
0.0013741625699065898
0.0014513189509208681
0.0015178868375620375
0.001573470152403824
0.001618128483372509
0.001652300970527451
0.0016767147539178383
0.001692292224907743
0.0017000679326585218
0.0017011219647752873
0.0016965329110774346
0.0016873507682006294
0.001674588405220637
0.001659229440334192
0.00164225049183002
0.0016246558169698828
0.0016075234040130264
0.0015920616983831502
0.0015796774297382175
0.0015720486005796393
0.0015711875107137798
0.0015788958571553025
0.0015868641966134455
9.50288598626873e-06
1.833920819523045e-05
4.077264261242006e-05
7.349664619826915e-05
0.00011592560656122288
0.00016801298130356325
0.00022990112137715767
0.00030174934795706147
0.00038356148438499136
0.00047502538317992454
0.0005753760280629151
0.0006833020918801581
0.0007969155067576873
0.0009137992423161427
0.0010311370147496656
0.001145913262363181
0.001255155064750447
0.0013561770073724293
0.0014467881295230087
0.0015254296260273758
0.0015912284350177378
0.0016439702158004763
0.0016840095304003282
0.0017121424356715909
0.001729466737948268
0.0017372506396744285
0.0017368231898471362
0.0017294931641755103
0.0017164974944644058
0.0016989768323087391
0.0016779742225364663
0.001654452600193327
0.0016293274695182668
0.0016035122552653118
0.0015779750581252402
0.0015538066971511498
0.0015323000437908762
0.0015150430700171242
0.0015039663627877775
0.0015011427366842553
0.001503019872200149
0.00010710862539780313
0.00015952560123911816
0.00029737915312175303
0.0005889837542652637
0.0007061086056730625
0.0009576762039813757
0.001085541826687972
0.0013267889789220085
0.0014332336237311203
0.0016053352154001882
0.0016686493841360061
0.0017166963618210317
0.0017502823036960207
0.0017706932004530258
0.0017794956950001471
0.00177836380998532
0.0016128638980342416
0.001579610457337038
0.001458701728057876
0.0014382728810828685
0.001421723080099523
5.083330172804352e-06
1.2871901759723792e-05
3.36291439612048e-05
6.517538568005723e-05
0.0002228078345770357
0.0003834785144755694
0.0004809369876874838
0.0008300131256188941
0.0012098105566756476
0.0015266261743131658
0.0017689459960299777
0.0017527762689025785
0.0017312261907748293
0.0017054908129292014
0.0016766009458984389
0.0016454547859769439
0.0015465148343483798
0.0015145142815344694
0.0014847556676661875
0.0014256688954506895
3.138755240868209e-06
9.644749684396994e-06
2.8397788107281563e-05
5.8280734935615496e-05
9.888909065341915e-05
0.00015044101465220885
0.00021349509805226806
0.0002886980001522526
0.0003765100679028904
0.0004769381871341492
0.0005892922635370417
0.0007120030515153891
0.0008425440721964174
0.0009774957801220176
0.0011127678830490542
0.0012439597569078196
0.0013667998103235957
0.0014775782728547121
0.0015734874933085808
0.0016528100983318602
0.0017149383949286335
0.0017602490335987646
0.0017898833510556818
0.0018054901363173327
0.0018089789540845058
0.001802315174661008
0.0017873709617178635
0.0017658329034691636
0.001739158895012493
0.0017085735831529048
0.0016750915059689292
0.001639559374320656
0.0016027111169525632
0.0015652326053139918
0.0015278351192362758
0.0014913386809704814
0.0014567690878827151
0.0014254690254522275
0.001399236332188461
0.0013803377774485755
0.001372776619866011
2.2094362512945297e-06
7.490927428033178e-06
2.4315643339875056e-05
5.255370620584307e-05
9.184076946963876e-05
0.00014250474695209244