# vtk DataFile Version 2.0
time_10.vtk
ASCII
DATASET UNSTRUCTURED_GRID
POINTS   4141  float 
5.186218068575244e-05         -1.412652294484737e-17        0.0                           
0.25000000000000144           4.9148815099534754e-05        0.0                           
0.5000476280940195            5.327853042433513e-17         0.0                           
0.75                          4.420768375392842e-05         0.0                           
1.000042291093335             -2.0521534162832593e-17       0.0                           
1.2499999999999993            3.801309429461181e-05         0.0                           
1.5000356432618434            -7.109339764789737e-18        0.0                           
1.75                          3.0432200369710037e-05        0.0                           
2.0000275915814254            1.8942416809905123e-17        0.0                           
2.2500000000000018            2.145267139633917e-05         0.0                           
2.500018163782708             -1.1263252677541277e-17       0.0                           
2.75                          1.1184066191271641e-05        0.0                           
3.000007518201035             2.7793899127153195e-17        0.0                           
3.25                          -3.2195950548872285e-16       0.0                           
3.499995739966806             -4.470718490603238e-15        0.0                           
3.75                          -1.2849196771604985e-05       0.0                           
3.999982763955407             9.696876091084948e-17         0.0                           
4.25                          -2.621432576445751e-05        0.0                           
4.499969199503519             6.753867420201274e-17         0.0                           
4.75                          -4.0152999066216506e-05       0.0                           
4.999955083982177             4.676103398762522e-17         0.0                           
5.25                          -5.461578005667334e-05        0.0                           
5.499940443525022             -5.458444537907601e-17        0.0                           
5.750000000000001             -6.963970523840614e-05        0.0                           
5.999925205520244             6.810612926562019e-17         0.0                           
6.25                          -8.537083767561247e-05        0.0                           
6.499909187787129             2.3867912867931168e-15        0.0                           
6.75                          5.171073998541979e-05         0.0                           
7.000050406985242             3.7815892830066726e-06        0.0                           
7.250004061714333             4.748188391855307e-05         0.0                           
7.500045838989877             4.671403288061575e-06         0.0                           
7.750004997643875             4.214689292042929e-05         0.0                           
8.000040083366237             5.683179995470221e-06         0.0                           
8.250006038243145             3.5496438775511876e-05        0.0                           
8.500032967592386             6.762111488279602e-06         0.0                           
8.75000712664051              2.7436796919948637e-05        0.0                           
9.000024438277826             7.850739979256294e-06         0.0                           
9.250008206553996             1.7993809140034846e-05        0.0                           
9.500014559148006             8.897061442215446e-06         0.0                           
9.750009228396356             7.29881392938498e-06          0.0                           
10.000003477046583            9.85598747373242e-06          0.0                           
1.0208025143624295e-05        0.2999954360337111            0.0                           
0.24999123239625065           0.3000108278864744            0.0                           
0.5000110991809823            0.2999825492254567            0.0                           
0.7499780938672062            0.30001162274483034           0.0                           
1.0000118759043721            0.299968982036981             0.0                           
1.249964333109369             0.3000123698543964            0.0                           
1.500012613546607             0.2999548610989927            0.0                           
1.7499500393803633            0.3000131031006843            0.0                           
2.000013352845183             0.29994021821319117           0.0                           
2.2499352121070983            0.3000138724667293            0.0                           
2.5000141464577883            0.2999249816661114            0.0                           
2.749919742354008             0.30001473269606294           0.0                           
3.000015048571479             0.29990896870860756           0.0                           
3.2499034123895854            0.3000157336393517            0.0                           
3.5000070280030235            0.30004995836419585           0.0                           
3.750048557858145             0.30000811357665524           0.0                           
4.000008709034922             0.3000454036167172            0.0                           
4.250043629994995             0.3000099897152632            0.0                           
4.500010667359964             0.30003964980326964           0.0                           
4.750037431589899             0.30001207635384564           0.0                           
5.000012798983398             0.3000325212280485            0.0                           
5.250029826560312             0.30001425886666855           0.0                           
5.500014987843124             0.300023962804413             0.0                           
5.75002079946802              0.30001642490458896           0.0                           
6.0000171263743205            0.3000140317610511            0.0                           
6.250010437291587             0.30001848277878196           0.0                           
6.500019136739868             0.3000028427327224            0.0                           
6.749998864848794             0.30002042863782774           0.0                           
7.000021050910408             0.29999058493995806           0.0                           
7.249986293507047             0.3000221954221931            0.0                           
7.500022730860748             0.29997745449806806           0.0                           
7.7499729251150935            0.30002375744404086           0.0                           
8.000024254315257             0.29996367540521673           0.0                           
8.249958962231517             0.3000252304186128            0.0                           
8.500025716614328             0.29994936732037714           0.0                           
8.749944484741782             0.30002670453866903           0.0                           
9.000027214444538             0.299934536546383             0.0                           
9.249929461454673             0.3000282869547166            0.0                           
9.500028857714739             0.29991907488664643           0.0                           
9.74991374560238              0.3000300872434553            0.0                           
10.000030752701646            0.2999027615908033            0.0                           
5.049778122749634e-05         0.6000105132479285            0.0                           
0.2500113013449855            0.6000478185282087            0.0                           
0.5000463113884122            0.6000130417582721            0.0                           
0.7500139852525999            0.6000429075729508            0.0                           
1.0000409929911147            0.6000159912434118            0.0                           
1.2500170412757632            0.6000367047974933            0.0                           
1.5000343223752202            0.6000192025866394            0.0                           
1.7500203006535788            0.6000290705518807            0.0                           
2.0000262015079207            0.6000224998657161            0.0                           
2.250023589308355             0.6000199880676083            0.0                           
2.5000166513236497            0.6000257225989353            0.0                           
2.7500267587427496            0.6000095420200314            0.0                           
3.0000057804850457            0.6000287620625856            0.0                           
3.250029730207503             0.5999978874164134            0.0                           
3.4999937766421363            0.6000315868317794            0.0                           
3.7500324629865434            0.5999852602377272            0.0                           
3.999980867965991             0.6000341101043146            0.0                           
4.250034891341398             0.5999718547850879            0.0                           
4.499967247913481             0.600036395174553             0.0                           
4.750037127508302             0.5999578578043488            0.0                           
4.999953079950788             0.6000385794350186            0.0                           
5.250039310593524             0.5999433612564519            0.0                           
5.499938416996389             0.6000408140743462            0.0                           
5.750041599084619             0.5999283387074104            0.0                           
5.999923192168285             0.6000432670687799            0.0                           
6.250044162008191             0.5999126421910999            0.0                           
[...]
POINT_DATA  4141
SCALARS Con float 1
LOOKUP_TABLE default
0.00039916303792430157
0.0004316288578785956
0.0004956449464788832
0.0005705354446928776
0.0006552488567514818
0.0007500459259053685
0.0008551286110590271
0.000970529238189492
0.0010960934022203042
0.0012314763374966786
0.0013761468152062985
0.0015293976783799879
0.0016903618188359722
0.0018580314545442805
0.002031277186679514
0.002208860595983812
0.0023894374995185094
0.0025715466369010936
0.0027539747100586414
0.00293882938928494
0.003148686695210206
0.0033594600380983915
0.0035476268923406965
0.0037266587668357025
0.0039060752048806916
0.004085299167505896
0.004264539790397458
0.004444228440631324
0.004625129359725982
0.004808276693367801
0.004994941270243437
0.005186602136026187
0.0053849226003601855
0.005591727996798912
0.005808983748526899
0.006038772510225903
0.00628326695047952
0.006544660904861318
0.006824555884744915
0.0071154969461860035
0.007283134639013418
0.0004054342817708115
0.00043866433091387265
0.0005039790480349445
0.0005802756986973623
0.0006665054495062897
0.0007629026062462665
0.0008696424170591211
0.0009867288634020607
0.0011139789553921663
0.0012510204210553473
0.001397297227362243
0.0015520823240827994
0.0017144970924370753
0.0018835370317664497
0.002058104040798337
0.0022370510942212956
0.0024192548833032635
0.0026038528804823912
0.0027906736253996475
0.0029846801839875595
0.003181559390429311
0.0033755195726758902
0.003564002567772137
0.0037493704633525006
0.0039311317915023455
0.004111475915372295
0.0042911660681695125
0.004471020856596149
0.004651986847046194
0.0048352080774165754
0.005022028948081164
0.005213984608990121
0.00541278519719644
0.005620297523567784
0.005838525072549626
0.006069585992389099
0.0063156860436431005
0.006579050377511525
0.006861299099362499
0.00715509627772636
0.0073245758166098985
0.00040185333516917554
0.0004350584973848744
0.0005004933943025823
0.0005770994161635462
0.0006638047016684143
0.0007608351563309709
0.0008683538657381352
0.0009863515880174601
0.0011146318589433312
0.0012528100010232945
0.0014003206444706247
0.0015564338600393235
0.0017202807396741076
0.001890890539833709
0.002067245305987044
0.0022483644038241548
0.002433463334519927
0.002622143478969654
0.002815196682059043
0.0030073349359611354
0.0031907369052944414
0.003374126363485069
0.003564234309272675
0.0037521818659494812
0.003936662000778505
0.004118301066299035
0.00429833094372951
0.004477828171791501
0.004657931400200717
0.004839904365158367
0.005025173053409783
0.0052153341080860205
0.0054121502964958376
0.00561753878345083
0.005833555159670069
0.006062374059558144
0.0063062638620547465
0.006567518628811122
0.006847840721373658
0.007139919564128171
0.007308456267006417
0.0003956397933121833
0.00042887773257101327
0.0004945395462332847
0.0005716559803428548
0.0006591502940307344
0.0007572307453626327
0.0008660398582108178
0.0009855453166609355
0.0011155263702664205
0.0012555741716552297
0.0014051010001602043
0.0015633586968431124
0.0017294672072637185
0.0019024546591033735
0.002081310122217056
0.002265049397794534
0.002452751962565542
0.002643549931592862
0.002835096525954762
0.0030242537840701697
0.0032108216354590066
0.003395928768629789
0.003581123071951711
0.003766975811318557
0.003950839260423084
0.004132172933987948
0.004311472374274731
0.004489689701123986
0.004667969302893835
0.004847628102560211
0.005030154453581742
0.005217209743585009
0.005410624035147143
0.005612386672704319
0.005824632817636087
0.006049626263723344
0.006289735791662671
0.006547368551575136
0.006824351597386501
0.007113574129512396
0.007280717542967552
0.00038685861257546715
0.0004201445997382148
0.0004861423809240884
0.0005639930686321174
0.0006526098742713199
0.0007521766659565701
0.0008628057617520956
0.0009844307549388574
0.0011167938762666632
0.0012594470989361047
0.0014117618181946137
0.0015729470690417208
0.001742076080719731
0.0019181195701621963
0.002099980788603325
0.002286513534585644
0.0024764954555478256
0.0026683516100384354
0.002860243244246127
0.003050648668008333
0.0032387287737725757
0.003424909635715604
0.00360984697853735
0.003793377072976967
0.003975149193319895
0.00415458757002322
0.004331839623332275
0.004507589678797465
0.004682881452355273
0.004859014471969155
0.005037505828291479
0.005220071269202573
0.005408612796949515
0.00560520671199666
0.005812090257416505
0.0060316455604951325
0.00626637745568468
0.0065188483910818915
0.006791067174000732
0.007076208996174639
0.007241350337635842
0.00037543514652278444
0.00040879687673628455
0.00047525189095897483
0.0005540741278147027
0.000644161363672315
0.0007456643765884797
0.0008586552410161004
0.0009830218010540238
0.0011184556513785515
0.001264453248117598
0.0014203248402360413
0.0015852107229103484
0.0017581036134171927
0.0019378740474861723
0.002123291556065066
0.0023130312410432835
0.002505638314348997
0.0026995495782748476
0.002893214649562989
0.0030853282361495947
0.0032751538156055907
0.0034624469628189588
0.003647216739733491
0.003829462693463382
0.0040089876292449525
0.004185726176653883
0.004359860303647692
0.004531986786198717
0.004703072096606489
0.004874390103121709
0.005047475111175953
0.005224093214710405
0.005406222933565698
0.005596040064262042
0.005795903598114802
0.006008340547604718
0.006236025508440966
0.006481718326682823
0.006747663062528356
0.007027405785898818
0.007189880949811209
0.0003612969539917677
0.00039476851277709605
0.0004618167564661495
0.0005418639813020049
0.0006337859624720856
0.000737691253636416
0.0008536014329115197
0.0009813470867685123
0.001120555910767258
0.0012706531819773003
0.0014308693012128637
0.0016002537886948703
0.001777694509511132
0.0019619395011487104
0.0021516178357218305
0.0023452553898405952
0.0025413025862698374
0.002738190612614136
0.00293444154411822
0.003128822554990553
0.003320442687520409
0.0035087718511125797
0.003693534677857296
0.0038745788113027776
0.004051853046023447
0.004225431794083364
0.004395639004621523
0.004563104827223267
0.004728794501909525
0.004893988163815219
0.005060251594468356
0.005229410267357388
0.005403529355317523
0.005584897989833102
0.005776015739946139
0.005979579166584342
0.006198464109220558
0.006435667338787437
0.0066937175168042375
0.006966618928148558
0.0071256938918597
0.0003443839392676094
0.0003780056380748871
0.0004457961916139486
0.0005273372366760702
0.0006214744603396944
0.0007282646813474175
0.0008476691276202005
0.0009794505752682883
0.0011231609887110555
0.001278140808268443
0.0014435248461452486
0.0016182545563773797
0.0018010961244522155
0.001990663384485982
0.0021854447405687985
0.002383837319646191
0.0025841938716052435
0.0027848918502785067
0.0029844244571157613
0.00318149326037018
0.0033750783736970053
0.0035644523758757113
0.0037491496005077744
0.0039289226049348865
0.004103715077307653
0.004273684353980847
0.004439237362738078
0.004601074704422912
0.0047602088322467135
0.004917964213295637
0.005075963142737112
0.005236108212976267
0.005400566288342349
0.005571755384893056
0.005752333870241445
0.005945190439753585
0.006153430651967481
0.006380324067837425
0.006628731051503623
0.006893207673680546
0.00704806468553897
0.00032466680574608523
0.00035848222085787493
0.00042717264047236896
0.0005104873249612687
0.0006072324945679995
0.000717403677647369
0.0008408928975931307
0.0009773863120962564
0.001126350567057289
0.0012870301774554932
0.00145845147533894
0.0016394335506349088
0.0018286065894475238
0.002024437840227775
0.0022252660550907267
0.0024293460041810043
0.002634905668536964
0.0028402164030427355
0.003043670936822967
0.003243858046914219
0.0034396174816483794
0.003630067001667334
0.0038146027907577217
0.003992887111824378
0.004164841877283069
0.004330653447742168
0.004490790946179092
0.004646024010209817
0.0047974350391345386
0.004946420144699125
0.0050946823871807585
0.005244221099546407
0.0053973213481024835
0.005556545486090342
0.005724727130218153
0.005904966526513822
0.006100623311638461
0.006315271481480435
0.006552147226148788
0.006806455434885977
0.006956179400855337
0.00030216868147625174
0.00033621933207150784
0.00040596629198176077
0.0004913360169663056
0.0005910849312205162
0.0007051381843953379
0.0008333115047823374
0.0009752082298807106
0.0011302030358383902
0.0012974362361795194
0.0014758149879396283
0.0016640226686730057
0.0018605377009164549
0.0020636628191412956
0.0022715655405487886
0.0024823303304946343
0.0026940219413293456
0.0029047573039597536
0.0031127802583106024
0.003316530498583472
0.003514698331989784
0.0037062598550182927
0.00389049367862137
0.004066985695527593
0.004235629605015131
0.00439662961002824
0.004550505417774799
0.004698097959992727
0.004840571936118038
0.004979414159416135
0.005116428137909822
0.005253727445888471
0.005393730124477348
0.005539155842674399
0.005693026242468689
0.0058586676812152905
0.00603971256285106
0.006240065023880833
0.006463376005776512
0.00670559839792042
0.006849165955502695
0.00027699084222518035
0.00031130751171849096
0.0003822512810993088
0.0004699429832957505
0.0005730786832279191
0.00069150530217756
0.0008249580054039492
0.0009729547934532391
0.0011347755167619225
0.0013094511595256712
0.001495760757792145
0.001692238198881401
0.0018971909814332064
0.002108732347137173
0.0023248272903700837
0.002543351781092395
0.002762162976212336
0.002979176277360384
0.003192443197120479
0.0034002230560417
0.0036010420859663413
0.0037937362077126308
0.003977477307426568
0.004151786058060521
0.004316536047531999
0.004471953164227681
0.004618612923364761
0.004757436215447363
0.004889683768435614
0.005016949461783819
0.005141153714941829
0.005264538557029732
0.005389666150079706
0.0055194219167381655
0.005657022571250158
0.00580602825790409
0.0059703550128509895
0.006154254538698199
0.0063618237346164865
0.006589862704132538
0.0067261350180191125
0.00024934222040056574
0.00028393200745258654
0.00035617295246028147
0.0004464146024986942
0.0005532830291324109
0.000676541488178434
0.0008158445939550539
0.0009706276867425031
0.0011400779775726244
0.001323115853453117
0.0015183850384310569
0.0017242550211089079
0.001938838737798422
0.0021600273405635697
0.0023855422870078047
0.002613003172109042
0.0028400077212965744
0.003064218538573508
0.0032834498848499237
0.0034957474890067726
0.0036994553700511823
0.0038932659013333408
0.0040762521096859875
0.0042478839335065065
0.004408031674511359
0.004556960560661435
0.004695319824954827
0.004824129043185993
0.004944763915742961
0.005058943413334372
0.005168720137882903
0.00527647579599644
0.005384923199330471
0.005497115770425784
0.005616464614444359
0.005746762190449965
0.005892208777692676
0.006057410112992585
0.006246929597000939
0.006458510992793298
0.006586231896619013
0.0002195719036723879
0.000254399901042827
0.00032796511314599257
0.00042091081452029494
0.0005317861776589919
0.0006602694170923623
0.0008059409132987799
0.0009681632835444702
0.0011460401402896554
0.0013383851279069887
0.0015437016775245106
0.001760178429492134
0.001985704524195884
0.0022179071726860927
0.0024542115763261613
0.002691920656981466
0.002928309545063827
0.003160727749083913
0.0033867007862195013
0.003604023130376905
0.0038108356498113365
0.004005683135193471
0.004187550324484348
0.0043558776627954585
0.004510560038024106
0.004651932927052102
0.004780750701669497
0.0048981615072546236
0.005005682728129733
0.0051051802914847035
0.005198854685741044
0.005289235823373949
0.005379188362899763
0.005471928274485628
0.005571050568560774
0.005680566992795825
0.005804949799978554
0.005949151410307564
0.006118208430686045
0.006310898388452956
0.006428699628848906
0.00018820257799916863
0.00022316719027317574
0.0002979654127038685
0.00039364834988825424
0.0005086865729961946
0.0006426781869713233
0.0007951445413946045
0.000965395527909257
0.0011524696661749487
0.001355084804374931
0.0015716022275775055
0.0018000113318117528
0.002037940860570854
0.002282699980682088
0.0025313491192557923
0.002780796846947943
0.003027915721209758
0.0032696674696066747
0.0035032266976621875
0.003726092631724335
0.0039361803777617395
0.004131886158016794
0.004312124643274359
0.004476339874767226
0.004624494035955538
0.004757039981820757
0.004874884137146795
0.004979346206853537
0.005072121338368836
0.005155249541228052
0.005231095882103891
0.005302344203103565
0.005372005913503429
0.005443444680287103
0.005520416834234328
0.005607126179266509
0.00570828887740373
0.005829180110763078
0.005975299359607576
0.006146537568752475
0.006252953263058111
0.00015596116184090318
0.00019086241465911052
0.0002666261381680385
0.00036489826633434136
0.00048407766574664013
0.0006236960139271505
0.0007832429325168905
0.0009620093911783743
0.0011590005904575204
0.0013728596701928523
0.001601808491326027
0.0018436163292193336
0.002095604892150135
0.0023546942272607346
0.0026174893194313657
0.0028804019702433166
0.0031397979129146355
0.0033921555728821835
0.003634221434255352
0.0038631477751211256
0.004076601423144254
0.004272836605680546
0.004450730005955748
0.004609780792617603
0.004750082024551313
0.004872272096798923
0.004977475496361707
0.005067241886923344
0.00514349107187262
0.005208469934772057
0.0052647256503028225
0.0053150979919120616
0.005362732300610037
0.00541111374359955
0.0054641227183804
0.005526110292288877
0.005601989626666965
0.005697314861392705
0.005818019266317757
0.00596517168829628
0.006058663873511846
0.0001238006387529963
0.00015830151734852731
0.0002345164679320917
0.0003349760321195163
0.0004580258215539627
0.0006031560375203249
0.0007698674288421743
0.00095748506848686
0.0011650319955730534
0.0013911123156913068
0.0016338179111644896
0.0018906739113093403
0.0021586345437442805
0.00243413591654228
0.002713205507113024
0.002991620675163376
0.0032651015271992624
0.003529518422333036
0.0037810924179869274
0.004016568475095994
0.004233345970610598
0.004429557896878114
0.004604097600710332
0.004756598549008559
0.004887377571933157
0.004997354480485642
0.005087961520329765
0.005161054724364868
0.005218836995998689
0.00526380009413448
0.005298690164717398
0.005326499289379182
0.0053504841456200386
0.005374211804173103
0.00540163242086134
0.005437178512273715
0.005485888525019772
0.005553530378691654
0.005646419235237734
0.005766852702532021
0.005845851520512347
9.29025244163021e-05
0.00012648572799825623
0.00020231239116251529
0.0003042231649652459
0.0004305443032556741
0.0005807583555385737
0.0007544409475791128
0.0009510346062323441
0.001169658909497454
0.0014089350337676333
0.0016668442473235007
0.0019406399237981088
0.0022268297104407917
0.002521237790093986
0.0028191475793293676
0.0031155140090153776
0.003405223695649371
0.0036833735780045654
0.003945535674737985
0.004187978607242526
0.0044078244068803995
0.004603130243632008
0.004772896206837331
0.004917009988239657
0.005036145726426248
0.005131636816635315
0.005205341797029291
0.005259519510097106
0.005296725428540894
0.005319737073475672
0.0053315125203801175
0.005335183471524168
0.005334082521010489
0.005331803531146877
0.005332294118055171
0.005339979998024498
0.0053599231678538774
0.005397999767336252
0.00546084792013642
0.005552020189317493
0.0056149741827801435
6.465251556409356e-05
9.657332275725813e-05
0.00017076737995387067
0.00027298988412095306
0.0004015711126485447
0.000556028581147295
0.0007361221151457964
0.0009415362030247661
0.0011716014585357102
0.0014250405804102954
0.001699758951854681
0.001992707875190376
0.0022998451207021753
0.0026162091614295594
0.002936109676776931
0.003253419075481921
0.003561932670488738
0.003855752175727925
0.004129643119668227
0.004379322125423708
0.004601643977601274
0.004794676901854921
0.004957672656738415
0.005090952335515615
0.005195736633622436
0.005273950962176575
0.005328032407074367
0.00536075930603941
0.0053751170991662755
0.005374207618888402
0.00536120397313954
0.005339349943319293
0.005312001122339667
0.0052827047400427095
0.005255315603908225
0.0052341472779546434
0.005224158319336455
0.005231179033324845
0.005262005858529327
0.005321583439775581
0.0053670452809255025
4.054063451264542e-05
6.980768020588584e-05
0.00014070201502263798
0.00024163247683008955
0.0003709303079341557
0.000528270973156532
0.0007137564369218839
0.0009274806541462545
0.0011691466080376962
0.0014377038903252463
0.0017310430051260043
0.002045784731968591
0.0023772041371904777
0.00271931777496344
0.0030651420949183972
0.0034071027022753698
0.0037375449820982796
0.004049274717057741
0.004336050621329104
0.0045929611051125
0.00481664291397722
0.005005330818913322
0.005158757275296631
0.005277941147707784
0.0053649136683817
0.005422427698905821
0.005453687509866951
0.0054621243529925185
0.005451231245218275
0.005424461008861835
0.005385185269501684
0.005336708750853298
0.005282332586961416
0.005225460666283752
0.0051697452594011315
0.005119269085583977
0.005078764581981706
0.005053850944513418
0.005051239518734655
0.005076952457928547
0.00510354816076431
2.224450894702901e-05
4.7522400095569803e-05
0.00011298494816952735
0.00021043844140850192
0.0003383169584456525
0.0004966123144119934
0.0006859460328194574
0.0009070475253757485
0.0011602190077441323
0.0014448268684906635
0.001758854549770105
0.0020985774790814667
0.0024584225385245965
0.0028310641260571286
0.0032077776721968093
0.0035790253327159975
0.0039351969515762425
0.0042673908523648664
0.004568106625715026
0.004831743366107715
0.005054843342171695
0.005236077441604219
0.0053760167851860195
0.005476763646706747
0.005541521010154958
0.005574169935959085
0.0055789034041527135
0.005559944051021377
0.005521354596194592
0.005466937203887887
0.005400211031443908
0.005324455133647027
0.005242805076595561
0.0051583945628376204
0.005074537263471217
0.004994947765048062
0.004924000626219504
0.00486703498792577
0.004830510391705175
0.004821339583096201
0.004827745083387194
0.0003116050420060786
0.00047017285193827815
0.0008916755173669634
0.0017971256788868078
0.0021652215248172536
0.0029642678861576083
0.003375112067387067
0.004160403582726008
0.004512038301824943
0.005090138642537084
0.005307395527419683
0.005475341780577444
0.005595891870740938
0.00567267832944196
0.005710421765108476
0.005714358614982378
0.005191637031180262
0.005082214245453556
0.004682343559035536
0.004614752411919764
0.004560288991108622
1.1317322286392195e-05
3.301682554223444e-05
9.271566181491026e-05
0.00018592868645753591
0.0006630018583715631
0.0011572883647037746
0.0014597440273298487
0.0025573065924824573
0.0037778170969298367
0.0048239695922988185
0.005689782927491317
0.005641724027613257
0.005574756917466216
0.005492927681329569
0.005399771099955429
0.005298398261735194
0.004972975187260303
0.004867141886088075
0.0047686188284816015
0.004573181927710293
7.232741188825981e-06
2.4772177404681554e-05
7.793864332909747e-05
0.0001656468735097631
0.00028681795816502787
0.0004422303896994681
0.0006337976604222306
0.0008638064214068154
0.0011340736982784472
0.0014451104504279943
0.0017953373427909013
0.0021804640554608473
0.002593164936565743
0.0030231776625372357
0.003457893328836435
0.003883402178754259
0.004285837311738506
0.004652764867862474
0.0049743481468967265
0.005244075758428048
0.005458967192332736
0.005619299070810821
0.005727989952416244
0.005789817173256775
0.0058106246700984805
0.005796634609198733
0.005753923114269052
0.005688074767238064
0.005604000637244586
0.005505889663342405
0.005397259845870312
0.005281080384447495
0.005159943047341843
0.005036270343797484
0.004912556153919686
0.004791640952376973
0.0046770332758703445
0.004573277680055815
0.004486409128368124
0.0044239900687199985
0.004399124415545269
5.922604140719914e-06
1.9547969517512823e-05
6.650480012249095e-05
0.00014883504046191314
0.0002655665152916433
0.00041779510359834864
0.0006080509982976658
0.0008393897223938652
0.0011144333782261429
0.0014343777053987033
0.0017980358675786891
0.002201044647519453
0.0026354097104758067
0.003089567052074923
0.0035490699101379847
0.003997871863041238
0.004420005435092726
0.004801319848436993
0.0051309094667243895
0.005401956795959415
0.005611890135065206
0.005761937689659598
0.0058562807168869085
0.005901042840191875
0.005903317505620511
0.005870364626611036
0.005809033767582055