# vtk DataFile Version 2.0
time_10.vtk
ASCII
DATASET UNSTRUCTURED_GRID
POINTS   4141  float 
5.8680038341704066e-05        1.7046108037897312e-17        0.0                           
0.24999999999999983           5.55940474036179e-05          0.0                           
0.5000538666763354            -1.6627448174664047e-17       0.0                           
0.75                          4.998593251306832e-05         0.0                           
1.0000478135433999            -2.1113922613533973e-17       0.0                           
1.25                          4.29686634217447e-05          0.0                           
1.5000402866862192            -9.877302240738033e-17        0.0                           
1.75                          3.439266723780065e-05         0.0                           
2.000031181280593             3.441119411143307e-17         0.0                           
2.25                          2.4243673612387405e-05        0.0                           
2.500020527919669             -1.821102205321454e-17        0.0                           
2.750000000000001             1.264342673104181e-05         0.0                           
3.0000085020798073            1.6896284797092635e-17        0.0                           
3.25                          -2.4125110488381854e-17       0.0                           
3.499995204028084             3.954427277212214e-17         0.0                           
3.75                          -1.4478415573975249e-05       0.0                           
3.999980574221365             -9.896766670064319e-17        0.0                           
4.25                          -2.955266952607966e-05        0.0                           
4.499965273924151             4.9215110672821796e-17        0.0                           
4.75                          -4.5277097668195905e-05       0.0                           
4.999949348990969             2.412353800565772e-17         0.0                           
5.25                          -6.159592575268117e-05        0.0                           
5.49993282860154              5.2675099793080744e-17        0.0                           
5.75                          -7.85511075239689e-05         0.0                           
5.999915630921739             -9.895659499982281e-17        0.0                           
6.25                          -9.630661445486913e-05        0.0                           
6.49989755167297              5.688191334433188e-16         0.0                           
6.75                          5.850984660000674e-05         0.0                           
7.000057026340761             4.301123761493626e-06         0.0                           
7.250004615956098             5.370236987504251e-05         0.0                           
7.500051837666117             5.3012330305903455e-06        0.0                           
7.750005667942614             4.765149241979715e-05         0.0                           
8.000045313903875             6.438556657760038e-06         0.0                           
8.25000683770287              4.012167359462977e-05         0.0                           
8.500037260894011             7.651482875904857e-06         0.0                           
8.750008061315103             3.1007324470834325e-05        0.0                           
9.000027618356606             8.875484681253976e-06         0.0                           
9.250009275619671             2.0337058941777205e-05        0.0                           
9.500016457325913             1.0052358146368519e-05        0.0                           
9.750010425255164             8.25750866733829e-06          0.0                           
10.000003942334486            1.1132232859190954e-05        0.0                           
1.1525949608740765e-05        0.29999486811158294           0.0                           
0.24999012653206135           0.3000122219446217            0.0                           
0.5000125279038057            0.2999803330050128            0.0                           
0.7499753075916746            0.3000131183677856            0.0                           
1.000013403951135             0.29996502912599754           0.0                           
1.2499597845453227            0.30001396139853553           0.0                           
1.5000142365328113            0.2999490979508862            0.0                           
1.7499436574302272            0.3000147894215257            0.0                           
2.0000150715202953            0.299932574773171             0.0                           
2.2499269251368816            0.3000156584150039            0.0                           
2.500015967797021             0.29991537871907176           0.0                           
2.749909465146972             0.30001662944072005           0.0                           
3.0000169857316648            0.29989730483986404           0.0                           
3.2498910335210103            0.300017757930561             0.0                           
3.50000800078735              0.30005652218226664           0.0                           
3.750054929941403             0.300009220836539             0.0                           
4.000009890107659             0.30005134840853875           0.0                           
4.250049336741226             0.3000113296371693            0.0                           
4.500012091376055             0.30004482665473464           0.0                           
4.75004231513258              0.3000136752957221            0.0                           
5.000014487673941             0.30003675920604506           0.0                           
5.250033711960502             0.3000161289529931            0.0                           
5.5000169485628225            0.30002708399882355           0.0                           
5.7500235097388375            0.30001856446804054           0.0                           
6.000019353359486             0.3000158652786327            0.0                           
6.250011806297839             0.3000208791119875            0.0                           
6.500021614774161             0.3000032333688731            0.0                           
6.749998743940644             0.3000230661972176            0.0                           
7.0000237651810515            0.2999894009454843            0.0                           
7.24998455945881              0.30002505334807666           0.0                           
7.500025656816716             0.29997458838924346           0.0                           
7.74996947888512              0.30002681448865565           0.0                           
8.000027375099764             0.2999590439434721            0.0                           
8.249953726460038             0.30002847694470375           0.0                           
8.500029025986986             0.29994290037866694           0.0                           
8.749937390784986             0.30003014185098625           0.0                           
9.000030717809645             0.2999261640361003            0.0                           
9.249920436225453             0.30003192899507974           0.0                           
9.500032573303757             0.2999087131349125            0.0                           
9.749902697900358             0.30003396047076686           0.0                           
10.000034710752875            0.29989030022615504           0.0                           
5.714670698563927e-05         0.6000119688293699            0.0                           
0.2500128545271699            0.6000540990974               0.0                           
0.500052387003674             0.6000148106429425            0.0                           
0.7500158711517554            0.600048524899874             0.0                           
1.0000463547389067            0.6000181260693392            0.0                           
1.250019306459571             0.6000414982983788            0.0                           
1.5000388021075044            0.6000217361850667            0.0                           
1.7500229706685808            0.6000328621756548            0.0                           
2.0000296188437425            0.6000254432151972            0.0                           
2.2500266681422136            0.6000225977591856            0.0                           
2.5000188286474723            0.6000290669529278            0.0                           
2.7500302321745194            0.6000108007435561            0.0                           
3.0000065544834595            0.6000324849866258            0.0                           
3.250033573439782             0.5999976462141194            0.0                           
3.4999930072738894            0.6000356607486769            0.0                           
3.750036646471127             0.5999833978421832            0.0                           
3.999978442405264             0.6000385015196925            0.0                           
4.25003938213331              0.599968274055146             0.0                           
4.4999630767121035            0.6000410783467763            0.0                           
4.750041904836633             0.5999524825392238            0.0                           
4.999947091663857             0.6000435441777372            0.0                           
5.250044369973294             0.5999361250919455            0.0                           
5.499930545504269             0.6000460682125378            0.0                           
5.7500469548183775            0.5999191712543839            0.0                           
5.999913362538479             0.6000488380223962            0.0                           
6.250049847932521             0.5999014546988604            0.0                           
[...]
POINT_DATA  4141
SCALARS Con float 1
LOOKUP_TABLE default
0.0005136508724130137
0.0005550970689336195
0.0006370500615084123
0.0007328328797670222
0.0008410715447510276
0.0009620860904986349
0.0010961238979371982
0.001243217569655296
0.0014031635203130075
0.0015755178239950627
0.0017596016488040929
0.001954515150399474
0.0021591583279499554
0.0023722561806778495
0.0025923838575103953
0.0028179840879225017
0.0030473743071244563
0.003278730822343737
0.003510565913374442
0.0037452238878497787
0.004009881914091157
0.004275922437517149
0.004515086142447264
0.004742629525474431
0.00497061323693696
0.005198336168461283
0.005426095089607451
0.0056544536116656914
0.005884388462980327
0.006117211783620485
0.0063545302058261
0.006598209258780661
0.00685034315366882
0.007113226546895734
0.007389326578233697
0.007681253690746053
0.007991727017639094
0.008323487875606366
0.008678530037614707
0.00904741955912141
0.009259764498480552
0.0005220420603220851
0.0005644663092845021
0.0006480841377364249
0.0007456652608277179
0.0008558394778467006
0.0009788930961278518
0.0011150395526638786
0.0012642754725181262
0.00142636100672652
0.001600817306271936
0.0017869339607513692
0.0019837855884791305
0.0021902568966971755
0.002405075563428917
0.0026268532390719347
0.0028541416897018036
0.00308552159831948
0.0033198966638298133
0.003556974033405254
0.00380296281377778
0.004052386611079147
0.004297981030241944
0.004536804577042233
0.004772119724974283
0.00500294694341621
0.005232028689453209
0.005460325023171943
0.005688876474387817
0.0059188844528580255
0.006151797382760074
0.00638931360253379
0.0066333689002292685
0.006886116319221822
0.007149902730124465
0.007427243228190831
0.007720792988819015
0.008033312845002144
0.008367583550661355
0.00872562178543037
0.009098142310646049
0.009312825176625556
0.0005174630018270499
0.0005598572387002573
0.0006436313622014133
0.0007416105926957538
0.0008523947315794972
0.0009762591768306563
0.001113401571142903
0.0012638013175481062
0.001427200908055063
0.0016031050328224861
0.0017907904672020442
0.0019893268048124507
0.002197609002894255
0.002414404226619299
0.0026384201566585098
0.002868409613196168
0.0031033669305915927
0.003342754630789951
0.003587538887650753
0.0038310416268600355
0.004064038384558996
0.004297096684257092
0.004538050969527346
0.0047762910313465575
0.00501035996232943
0.0052409551919146485
0.005469602562262739
0.005697648460031242
0.005926526703488645
0.006157831364748238
0.006393360908583571
0.0066351273095859396
0.0068853494579224584
0.007146437720255239
0.007420973261806612
0.007711683110166983
0.008021407861864107
0.008353015954635525
0.008708627729347395
0.009078984672182874
0.009292476810407306
0.0005095114326031472
0.000551950090137097
0.0006360189312037726
0.0007346546780810315
0.0008464504973072294
0.000971658892966605
0.0011104508530392653
0.0012627758142024477
0.001428344631726116
0.001606630331916161
0.001796880117133777
0.001998138936694959
0.0022092856804195723
0.002429083659451607
0.0026562466612517436
0.0028895211212793823
0.0031277318045368004
0.0033697763242669858
0.003612712898375407
0.003852757906521916
0.004089618320184535
0.004324641537243404
0.004559699519209958
0.004795431471936871
0.00502867028596423
0.005258807074267912
0.005486461919522029
0.005712830444740276
0.005939352547881782
0.006167687583875361
0.006399711301671674
0.006637516601698418
0.006883407069723843
0.007139884376702328
0.007409630641684685
0.007695486165284771
0.00800041907878426
0.008327441140730946
0.008678829983049887
0.009045577548687291
0.009257311129150252
0.0004982723151377291
0.0005407759822057037
0.0006252811137543627
0.0007248616675262908
0.0008380972976992553
0.0009652089106068284
0.0011063284104848494
0.0012613611022288815
0.001429969864765057
0.0016115768956582567
0.0018053763116761172
0.0020103575111578794
0.0022253389932127663
0.0024490106149713314
0.002679978132503086
0.002916786797471679
0.0031578912881377367
0.0034013146529723692
0.003644783702037107
0.003886403785358041
0.0041251391708153964
0.004361479207658425
0.004596189914901079
0.004829073416126429
0.0050597118802722585
0.0052874359880543675
0.005512462414863184
0.005735663151774572
0.005958357795696189
0.006182186368762977
0.006409062030127795
0.006641146984681781
0.006880836311429521
0.007130742277768505
0.00739367685521475
0.007672630819537478
0.007970745129531834
0.008291228522914538
0.008636588716342602
0.008998180867496436
0.009207392537187897
0.0004836480715876902
0.0005262533854566984
0.0006113524123900315
0.0007121837079965513
0.0008273063608424624
0.0009568984609084666
0.0011010399223998167
0.0012595769526305989
0.0014321070368819272
0.0016179807414476847
0.0018163134612491428
0.002026006444453813
0.0022457755847177705
0.002474184124642273
0.002709670328243088
0.002950557551318115
0.003195012463535563
0.00344107726401795
0.0036868150365988337
0.003930601453514795
0.004171506394581971
0.004409205483541972
0.004643691012349751
0.004874954618582641
0.005102768230945763
0.005327076054862645
0.005548134526953962
0.00576671380783062
0.005984042259703282
0.0062017316686369724
0.0064217195581972066
0.006646233572175657
0.006877766971795123
0.007119059153834962
0.0073730773593875315
0.007642996891281482
0.00793217467722484
0.008244070377493251
0.00858149092586668
0.008936261353103542
0.009142110769328015
0.00046554304265381105
0.0005082950425900053
0.0005941649763714062
0.0006965742282492692
0.0008140527742847693
0.0009467241404921127
0.0010946030659639574
0.001257461880326849
0.0014348156845518586
0.001625923430170785
0.0018297980305909715
0.002045224705874432
0.0022707860199390507
0.0025048903376391164
0.0027457993136354303
0.0029916492638102387
0.0032404878979556896
0.003490344726465737
0.0037393685832575498
0.0039860139863445694
0.0042291602998453404
0.004468133448693338
0.004702579292961009
0.004932306787174211
0.005157261794183722
0.005377557383871482
0.005593622085736335
0.00580626784998477
0.006016724571196898
0.0062266151372594785
0.006437919577173434
0.006652942862768641
0.006874289798105887
0.007104844950721492
0.007347755155408321
0.007606411955063545
0.007884428625674202
0.008185566386764447
0.008512993890977788
0.008859115357903192
0.009060672748354195
0.00044387643144383254
0.0004868284393298297
0.0005736637558380209
0.0006779986834115125
0.0007983235821204706
0.0009346951891543888
0.001087050377865635
0.0012550739970523218
0.0014381835293763112
0.0016355287674584584
0.0018459999770157262
0.002068244216354843
0.002300689097903133
0.0025415727296159807
0.0027889787658931346
0.0030408805327915176
0.0032952006385676335
0.003549897721490993
0.0038030787824467134
0.0040531133122995435
0.004298718772392985
0.004538978639067403
0.0047733063786859105
0.005001394105414075
0.005223180793150475
0.005438879291323469
0.005649019348292304
0.005854500170975186
0.00605661186529975
0.00625703515226112
0.006457823645857263
0.006661382008427157
0.006870445798098718
0.007088064739760475
0.007317588697238391
0.007562654455652913
0.007827168089466194
0.008115238034690012
0.008430454227259212
0.00876591821063991
0.008962146356943923
0.000418605818952287
0.0004618157886932958
0.0005498227434827393
0.0006564461382408246
0.0007801245554573832
0.0009208356512137893
0.0010784269863046906
0.0012524844901235072
0.0014423155582707107
0.001646946423967966
0.00186512799003667
0.0020953506118154782
0.0023358682915857747
0.0025847325102619184
0.002839836660821776
0.003098972899328188
0.0033599044715725912
0.003620453502080952
0.003878597945092347
0.004132563769379034
0.004380892932745867
0.004622477274083633
0.0048565602458527
0.005082723034460128
0.0053008773569486614
0.005511271335141345
0.005714511182559559
0.0059115821065295
0.006103862502740555
0.0062931245624111495
0.006481525570637056
0.006671594430134393
0.006866218318748741
0.007068631807589964
0.0072824088474694884
0.007511456317328938
0.007760004200210342
0.008032548392436374
0.008333156027686457
0.008655748607665747
0.008845485531685713
0.0003897548342026288
0.00043327867924299355
0.0005226635752581214
0.0006319415091816392
0.0007594858978277882
0.0009051836133560712
0.0010687836666979174
0.0012497648787942687
0.001447315729477118
0.0016603279438558226
0.0018873989988679547
0.002126845078654367
0.0023767260055067695
0.0026348832986690125
0.00289899217601722
0.003166627956399466
0.0034353460115477204
0.003702771892651178
0.00396669445859325
0.004225151531515676
0.004476497894371131
0.0047194492886362726
0.004953103805559318
0.005176948509271893
0.00539086051324099
0.0055951102148984735
0.005790366945500623
0.005977705302657252
0.006158607587320543
0.006334961222046698
0.00650905167333415
0.006683553975901554
0.006861525511249781
0.0070464021512305994
0.007241998225689136
0.007452509319137996
0.007682513166316533
0.007936925826731831
0.008220340986463888
0.008527625576943608
0.008709570678231025
0.0003574461159203132
0.0004013267787003567
0.000492276357236965
0.0006045579100951787
0.000736465996712842
0.0008877865765686304
0.0010581644315833152
0.001246967705927093
0.001453261862739444
0.0016757970528900206
0.0019130053646838974
0.0021630106983180726
0.0024236537816740744
0.0026925339673437004
0.002967068289302301
0.003244566782418708
0.003522321138199665
0.003797701426632089
0.004068253402581275
0.004331787800853713
0.004586453886278922
0.0048307927549670684
0.005063770240860597
0.005284793116732127
0.005493714324915647
0.005690832065824435
0.005876886051428143
0.00605305169909661
0.006220932705157514
0.006382552322096259
0.006540344824213034
0.0066971491669820605
0.006856206928982102
0.0070211659313175545
0.007196089851713186
0.007385472793565318
0.00759425412440655
0.007827792253667108
0.00809124699787029
0.008380556295602037
0.008553261302358174
0.000321939304777816
0.00036619032656820603
0.00045884193791891477
0.000574428095977302
0.0007111520064508057
0.0008686916731454158
0.0010465873860844824
0.0012440995829057437
0.0014601729179586113
0.0016934136843014358
0.001942078716382346
0.002204079974386098
0.002477008435256208
0.002758179428097199
0.003044699530228186
0.0033335528590041435
0.0036217021388835853
0.003906197710769521
0.004184286106275767
0.004453509583009888
0.004711789264903132
0.004957487355262295
0.005189447248502888
0.005407013663936554
0.005610036793798161
0.005798865276778813
0.005974332232490877
0.006137737855447672
0.006290831320456733
0.00643579446830106
0.006575229591085199
0.006712153622903919
0.006850000486467488
0.006992632731547463
0.007144362504918225
0.007309980606125603
0.007494788874837468
0.007704596335783276
0.007945154979821116
0.008213595873385502
0.008375462668263202
0.00028367299053441453
0.0003282552024305472
0.0004226542593993982
0.0005417534486711444
0.0006836556394077387
0.0008479290319631594
0.0010340171715361797
0.0012410849283722373
0.001467966961043188
0.001713129783540522
0.0019746477598040066
0.0022501991407251312
0.00253708727282279
0.002832289797713626
0.0031325357039517555
0.003434406827414759
0.0037344573050880677
0.004029342047225729
0.00431594396376712
0.004591489895339594
0.004853646885704051
0.005100593473668917
0.0053310641442641474
0.005544368543340532
0.0057403894927985305
0.005919565337698573
0.0060828625284997965
0.006231743972372654
0.006368138159102981
0.006494413151582545
0.006613359020599521
0.006728181348320234
0.006842507791237907
0.006960408623705533
0.007086431123557579
0.007225646262474915
0.0073837028181774214
0.00756685113057185
0.007781443831021436
0.008025919215990426
0.008175206789650367
0.0002433081694529596
0.0002880981388881986
0.0003841404595625703
0.0005068083926242965
0.0006541022097785981
0.0008254865556715567
0.0010203272860772076
0.0012377185791323725
0.001476407819979791
0.0017347346565409884
0.00201058751495512
0.0023013864645493663
0.0026040997782236417
0.0029152980391711977
0.0032312453892984747
0.003548022968659737
0.0038616754428382
0.004168368463739702
0.004464543544195185
0.00474705737188352
0.0050132951102016335
0.005261250999158477
0.00548957407919402
0.005697581029685528
0.005885241484940802
0.006053143217625884
0.006202445422500283
0.006334828126581404
0.006452444758111613
0.006557883848297419
0.006654144260815852
0.0067446273323854
0.006833147853422551
0.00692396487377332
0.007021832072718287
0.007132066001346689
0.007260626760672588
0.0074141756465649486
0.007599652745147415
0.007816904409118535
0.007951747639310008
0.00020176839305122474
0.00024651776777279724
0.0003438752163060814
0.00046993752534354213
0.0006226112405315788
0.000801274940408066
0.0010052512788557197
0.0012336061287251461
0.0014850390572109674
0.0017577884200716807
0.002049558742011123
0.002357483933786157
0.0026781366674989305
0.0030075892795447166
0.003341525537390665
0.0036753960595262473
0.004004604480013587
0.004324707166819963
0.0046316076944958725
0.004921728425848337
0.00519214530540389
0.005440677512114961
0.005665929871117257
0.005867291675840153
0.006044900002192601
0.006199578343360176
0.006332762129276531
0.006446422333672075
0.006542996560584538
0.006625335190970952
0.006696667925049308
0.0067605942268003
0.006821099610009934
0.006882598527768065
0.006950003663282035
0.0070288202077137645
0.007125259988277814
0.007246339643908183
0.007399549689333858
0.007586226113579659
0.007704668766199679
0.00016026906594898273
0.00020455475418180977
0.000302584302256526
0.000431543201700292
0.0005892681377167677
0.0007750836254091836
0.0009883234675297941
0.0012280920566875289
0.0014931051134045525
0.0017815435088233411
0.0020909380195460827
0.002418103890099594
0.0027591395882476024
0.003109497427760037
0.0034641251495093925
0.0038176682452538946
0.0041647141014214805
0.004500053055545815
0.0048189291960527
0.005117255905603943
0.005391777262492207
0.005640164949766053
0.0058610496270199396
0.006053993900206778
0.006219420032627414
0.006358508564180172
0.006473084551971527
0.006565506448692171
0.006638569825666701
0.006695434830082569
0.006739583162585351
0.006774807632536627
0.006805235646232272
0.006835386658380291
0.006870263269013993
0.006915475590131364
0.006977395992425879
0.007063313624026128
0.007181203542519429
0.007333955625050912
0.0074340020632773325
0.00012032239843754877
0.00016349050101875515
0.00026113244405043745
0.0003920622024859798
0.0005540905802778794
0.0007465315273707683
0.0009688110839395709
0.0012201776569480405
0.0014994619981383048
0.0018048569151234571
0.0021337415450869853
0.002482574617751602
0.0028468772791989416
0.0032213172039323003
0.0035998935411724773
0.003976208092618313
0.004343794823570436
0.004696470374093826
0.005028665171071108
0.005335698738582932
0.00561397303905451
0.005861071517855182
0.006075765864800004
0.006257944393580619
0.006408483753953144
0.006529088700863324
0.006622123701630623
0.006690456465098221
0.006737328178711767
0.006766260247995764
0.006781002529983379
0.006785524859927301
0.006784051418055378
0.006781136558404372
0.006781780857412117
0.006791587087922895
0.006816958705701168
0.006865323077568261
0.006945064879409036
0.0070606614172613125
0.007140341284203247
8.370851895429294e-05
0.0001248127356487203
0.00022048649007929823
0.00035194343878758376
0.0005169994811290214
0.0007150127815035893
0.000945641164690165
0.0012084352475490846
0.0015024850784915835
0.0018261003946416373
0.0021765494554402375
0.0025498920092559435
0.0029409367265550174
0.0033433427455743093
0.0037498671513622123
0.004152737840536506
0.004544109806897363
0.004916547635171429
0.005263472122094698
0.005579516782627166
0.005860757465623938
0.006104801802839468
0.006310747484011894
0.006479036037280915
0.006611238123055858
0.006709808297961718
0.006777842709244037
0.00681886555453417
0.006836661161680945
0.006835160599886832
0.006818385438206442
0.006790447317598652
0.006755599828039805
0.006718338881010895
0.006683548312920614
0.006656689650617672
0.006644035831129469
0.006652956325971712
0.006692035838694862
0.006767513142163531
0.006824991044745746
5.2350278961417265e-05
9.012497124873165e-05
0.00018170253162398485
0.00031164447375430524
0.00047776845053347153
0.0006796347262743196
0.0009173355877257507
0.0011909369547328961
0.0014999920909935997
0.0018430840311080775
0.0022174431697191102
0.0026186884274855033
0.003040741376368071
0.0034759475689215267
0.003915413348723233
0.004349529824558673
0.004768620286625992
0.0051636201633116245
0.005526692137059136
0.005851692548508434
0.006134438108124929
0.006372760810353373
0.006566376222938585
0.006716614417080711
0.006826074116699843
0.006898257045289375
0.006937229054453655
0.006947338908362466
0.006933011621319847
0.006898621056023752
0.006848439027817508
0.0067866537073376365
0.006717449532207936
0.006645141047620752
0.006574355994243768
0.006510263975573455
0.006458851696895922
0.0064272201775302734
0.006423844377386078
0.006456324591187193
0.006489859081562087
2.8423860028534193e-05
6.115716270866768e-05
0.00014590320514933186
0.0002715367900920031
0.00043600331014999685
0.0006392727673045054
0.0008820988880432478
0.001165351343757497
0.0014893340750116362
0.0018531413737613157
0.0022540966084922272
0.002687350726581895
0.0031457187021125452
0.003619817581037103
0.004098528972117236
0.004569750330692303
0.005021334976219712
0.005442074173057289
0.0058225612917268
0.00615580676225288
0.006437531700910154
0.006666138598441414
0.006842416448470877
0.00696907256267937
0.0070501901306620676
0.007090697397727753
0.007095908726656791
0.007071171285977736
0.007021628125760491
0.006952092744179742
0.006867021723444355
0.006770569326755809
0.00666670946202669
0.006559414113712212
0.00645288216699281
0.006351817202253785
0.006261752838390877
0.006189435189632242
0.006143015654208592
0.006131218341984168
0.006139143428019122
0.000401898318625502
0.0006056960562997808
0.0011463872850948497
0.002304402992659092
0.0027740393211408486
0.0037914546209778695
0.004313526804979288
0.005309465955645348
0.005754565720630571
0.006484996651960371
0.006758939525463663
0.006970354107942071
0.007121745598189087
0.007217765863584802
0.007264420482455283
0.007268350828407387
0.006601121826801071
0.0064620641241630705
0.005954370746658505
0.005868547287589187
0.005799092588390582
1.4111970066393466e-05
4.231893509889767e-05
0.00011978951646957543
0.00024010588226793832
0.0008532082692434113
0.00148653235173751
0.0018733982838461175
0.0032736188508467215
0.004824576555901592
0.00614891998270962
0.00723626050146654
0.007174512651580061
0.007088893804685618
0.006984521838997649
0.006865869458511244
0.006736875393360709
0.006323307215854497
0.006188930595756156
0.006063872635695331
0.005815645283022319
8.520675908893831e-06
3.142561218832926e-05
0.00010059152051894399
0.00021393165868722447
0.0003700430355302391
0.0005699112599929393
0.0008159418891546024
0.0011109831813339
0.00145724819863738
0.0018552510551486192
0.0023028173101563875
0.002794312072717461
0.0033202533988844632
0.003867467736330603
0.004419866990463963
0.004959793423104921
0.005469726206563902
0.00593402940496494
0.0063404005065865075
0.0066807619256008186
0.006951494484161051
0.007153073230908776
0.007289281712232728
0.0073662221901435124
0.007391319638952126
0.007372458831375955
0.007317328634919034
0.00723299077611884
0.007125653711948151
0.007000613437843407
0.0068623194229653186
0.006714529293079092
0.006560525281217991
0.00640337667297976
0.0062462429021592995
0.006092719838256965
0.005947243941055291
0.0058155539965098054
0.0057052617054040525
0.005625893414628934
0.005594150077452697
6.599385792036197e-06
2.4513508355511654e-05
8.576032714176412e-05
0.00019226516964971775
0.0003427647519990543
0.0005386559877735444
0.0007831360357506655
0.0010800338383342202
0.0014325825514970734
0.0018421541283459432
0.0023070501486210323
0.0028215115545123025
0.0033751711754669163
0.003953169484282871
0.0045370630461851105
0.005106477045721641
0.005641238537555107
0.006123561539844731
0.006539822934430795
0.00688159084699753
0.007145790673597716
0.0073341197769902795
0.007451968457714499
0.00750714435358797
0.007508650827396127
0.007465680941394431
0.007386896895542266
0.007279994620607901
0.007151511571328647
0.007006819963246505
0.0068502490091545375
0.0066852908748381845
0.006514859587931298