# vtk DataFile Version 2.0
time_10.vtk
ASCII
DATASET UNSTRUCTURED_GRID
POINTS   4141  float 
4.708975162046149e-05         -1.1811305247270469e-18       0.0                           
0.24999999999999753           4.4595441295230815e-05        0.0                           
0.5000432018883578            9.175049287161499e-17         0.0                           
0.75                          4.0075951198905094e-05        0.0                           
1.0000383282738519            -2.1699365996353454e-19       0.0                           
1.2500000000000007            3.443449321938241e-05         0.0                           
1.500032280760038             -1.0101426040559987e-16       0.0                           
1.75                          2.7550771864193043e-05        0.0                           
2.000024975047687             -6.404197762747252e-17        0.0                           
2.25                          1.941335357704074e-05         0.0                           
2.5000164358120314            1.411661793525912e-17         0.0                           
2.75                          1.0120274592161476e-05        0.0                           
3.0000068043140957            -8.492333485418835e-17        0.0                           
3.25                          3.745036714944999e-16         0.0                           
3.4999961617676485            5.608296232700392e-15         0.0                           
3.75                          -1.1583073525180821e-05       0.0                           
3.9999844612759703            -2.310161596745501e-16        0.0                           
4.25                          -2.363231835604467e-05        0.0                           
4.499972234733356             -5.533611504393863e-17        0.0                           
4.75                          -3.6190648472640146e-05       0.0                           
4.999959519970439             -1.339565844289724e-16        0.0                           
5.249999999999998             -4.9212225567493465e-05       0.0                           
5.499946341435047             -1.5202712248585195e-16       0.0                           
5.75                          -6.27298681269576e-05         0.0                           
5.999932634160771             -2.8892110987365964e-17       0.0                           
6.25                          -7.687487608170898e-05        0.0                           
6.499918234225586             -1.3449034919162845e-15       0.0                           
6.75                          4.695498017160046e-05         0.0                           
7.00004575503943              3.4765528455202394e-06        0.0                           
7.250003726243297             4.3071846922473804e-05        0.0                           
7.500041569105414             4.270346505531883e-06         0.0                           
7.7500045617580025            3.820005559046259e-05         0.0                           
8.000036320784258             5.174499811220487e-06         0.0                           
8.250005492002655             3.2150189298572825e-05        0.0                           
8.500029853930089             6.1394598279992536e-06        0.0                           
8.75000646554672              2.4837339786415607e-05        0.0                           
9.000022120089351             7.113265230783919e-06         0.0                           
9.250007431507404             1.6284597593030628e-05        0.0                           
9.500013176502662             8.048984535321724e-06         0.0                           
9.75000834522567              6.6100931469123036e-06        0.0                           
10.000003155771653            8.906275923803587e-06         0.0                           
9.218995616413014e-06         0.2999958943226801            0.0                           
0.24999210130365332           0.30000977067901385           0.0                           
0.500010012687881             0.2999842699893628            0.0                           
0.7499802530706716            0.3000104792140075            0.0                           
1.0000107045801674            0.2999720406954349            0.0                           
1.249967852117336             0.30001114399458445           0.0                           
1.5000113606739378            0.2999593210215167            0.0                           
1.7499549797764091            0.30001179587233323           0.0                           
2.0000120178971885            0.29994614029974476           0.0                           
2.2499416360982045            0.30001248000597763           0.0                           
2.5000127238063286            0.2999324343316481            0.0                           
2.7499277232865924            0.300013245845826             0.0                           
3.0000135273685675            0.29991803868210265           0.0                           
3.249913045304543             0.3000141384739727            0.0                           
3.5000064764032564            0.3000453558799523            0.0                           
3.750044069743384             0.30000744357273174           0.0                           
4.000007974797402             0.30004118193082824           0.0                           
4.250039562265014             0.30000911846184497           0.0                           
4.500009724054019             0.3000359352702315            0.0                           
4.75003391740452              0.3000109838545536            0.0                           
5.000011630174837             0.30002945691634175           0.0                           
5.250027012012368             0.30001293607657503           0.0                           
5.500013588171026             0.3000216969985381            0.0                           
5.750018832092276             0.3000148735052136            0.0                           
6.000015500767422             0.300012707323702             0.0                           
6.2500094565118545            0.30001671322201484           0.0                           
6.5000172973976955            0.30000259302441445           0.0                           
6.749999000131431             0.3000184492690472            0.0                           
7.000019003470293             0.29999152562487047           0.0                           
7.249987653816732             0.3000200232747245            0.0                           
7.500020500317787             0.2999796829125333            0.0                           
7.749975600004307             0.30002141428424384           0.0                           
8.00002185633998              0.2999672651425353            0.0                           
8.249963019646477             0.30002272431252386           0.0                           
8.500023156514683             0.29995437985432233           0.0                           
8.749949984824454             0.3000240347175086            0.0                           
9.000024488098015             0.2999410330298962            0.0                           
9.249936467749691             0.3000254422075951            0.0                           
9.500025950306124             0.2999271274753638            0.0                           
9.749922336447504             0.3000270457748562            0.0                           
10.000027639200553            0.29991246446887726           0.0                           
4.5875519858865384e-05        0.600009688609203             0.0                           
0.2500103903918306            0.6000434120531511            0.0                           
0.5000420307858782            0.6000119424790619            0.0                           
0.7500127848223005            0.6000389198774073            0.0                           
1.0000371740365288            0.6000145771953844            0.0                           
1.2500155159544608            0.6000332711106663            0.0                           
1.5000311060580704            0.6000174489176137            0.0                           
1.75001843116549              0.6000263394493827            0.0                           
2.000023738230094             0.6000203984633847            0.0                           
2.250021372921531             0.6000181098936347            0.0                           
2.5000150897441835            0.6000232805694284            0.0                           
2.750024206749734             0.6000086596315369            0.0                           
3.0000052597777263            0.6000259962361423            0.0                           
3.250026860180949             0.5999981298375845            0.0                           
3.499994418318586             0.6000285154144972            0.0                           
3.7500292961325683            0.5999867328839683            0.0                           
3.9999827711352793            0.6000307633449636            0.0                           
4.250031458883837             0.599974645028287             0.0                           
4.499970493229868             0.6000327969120381            0.0                           
4.750033448141702             0.5999620338512481            0.0                           
4.999957731113905             0.6000347388310643            0.0                           
5.250035388717116             0.5999489819083992            0.0                           
5.499944532371922             0.6000367253261294            0.0                           
5.750037423497864             0.5999354655032637            0.0                           
5.999930836916707             0.6000389079515032            0.0                           
6.250039705048643             0.5999213515361091            0.0                           
[...]
POINT_DATA  4141
SCALARS Con float 1
LOOKUP_TABLE default
0.00033824394182439577
0.0003647740377069323
0.0004171723598599636
0.0004784132130438124
0.0005476161099072015
0.0006249818812092423
0.0007106648199111023
0.0008046817836293695
0.0009068983605363784
0.0010170260494474844
0.0011346255838312845
0.0012591156907564855
0.0013897863403765772
0.0015258147931121986
0.0016662816653165578
0.001810182075502992
0.0019564297329822387
0.0021038478877738365
0.0022514607762153566
0.0024008217750191864
0.0025694462651711662
0.002738706279491996
0.00289038852024
0.003034697548043456
0.003179166076593938
0.0033233454363740676
0.003467419427329186
0.003611750164809037
0.003756966410380711
0.003903913805465365
0.00405362862193785
0.004207315160370546
0.004366326670290803
0.0045321476267375345
0.004706376232458419
0.004890706173530319
0.005086904803766784
0.005296757397099431
0.005521569888266628
0.005755335395119564
0.005889981877018516
0.00034352073070599565
0.00037067259078838474
0.0004241321684230735
0.0004865195954017425
0.0005569566699387176
0.0006356225633580801
0.0007226497818948321
0.0008180320999758436
0.000921611843279331
0.0010330781199376202
0.0011519714316920616
0.001277694171789983
0.0014095265858592178
0.001546647795325587
0.0016881620897776187
0.001833134939528531
0.001980650360769673
0.0021299974994176325
0.002280994803055313
0.0024375339312739247
0.0025961663699281398
0.0027523313488055996
0.0029040607280494688
0.003053299043391767
0.0031995659115117967
0.0033445925547171307
0.0034889919858463177
0.003633429658231119
0.003778677345574311
0.003925667301274589
0.0040754940520045975
0.004229406493571316
0.004388795200556745
0.0045551777532366776
0.004730182756575834
0.004915532254528397
0.005113020038171632
0.005324456416496796
0.005551162288787628
0.005787227585334062
0.005923356196267186
0.0003405391536722095
0.0003676742267388314
0.00042123808571865423
0.0004838853968480615
0.0005547183037690701
0.0006339086786870866
0.0007215786479200033
0.0008177107265344295
0.0009221357379932265
0.0010345320854936915
0.0011544319330577676
0.0012812343503759763
0.0014142260542576496
0.0015526113494595181
0.0016955558312601266
0.0018422534063052233
0.0019920515866370565
0.002144599139893265
0.0023004912641847682
0.002455524150965597
0.0026036670137438065
0.0027516870675666954
0.00290472443137021
0.0030559049730914853
0.003204253489507244
0.0033502502913767764
0.0034948739024886445
0.0036389888268834538
0.0037835161018806313
0.003929481198047222
0.004078042429837758
0.004230496993440085
0.004388276984981934
0.004552939865145319
0.004726155623223167
0.004909691273433628
0.005105390574241547
0.005315119008218987
0.00554026395635098
0.005774937984262047
0.005910306040768102
0.00033536739953762595
0.000362534753188167
0.00041629503772514664
0.00047937177359825927
0.000550862191330232
0.0006309229952007775
0.00071965880289082
0.0008170325564783873
0.0009228544825308317
0.001036782420043862
0.0011583293466507253
0.0012868783382644982
0.0014217056359693264
0.0015620129023494061
0.0017069695038755917
0.0018557651342985156
0.002007639783951776
0.0021618790375777827
0.0023166086772896397
0.0024693745582815567
0.0026199933549631922
0.0027693196626851374
0.0029185410893261717
0.0030680871796981146
0.0032159124804983
0.0033616188855127137
0.003505610892732707
0.003648657695991826
0.0037916853559153995
0.003935761402143057
0.004082093435005894
0.004232029916859125
0.0043870563480518845
0.004548787582300826
0.004718956995302112
0.00489940276461222
0.005092048979293945
0.005298851941157691
0.0055212996973136655
0.005753667126106711
0.005887910592245717
0.0003280573372378931
0.0003552720263496799
0.0004093227664282685
0.00047301741654612073
0.0005454436172474583
0.000626737136885578
0.0007169769456298703
0.0008160971757515462
0.0009238768520110862
0.001039940847755292
0.001163767796297252
0.0012947049130259494
0.0014319895571716919
0.00157477625383082
0.0017221652809646629
0.0018732180958217237
0.002026938425441462
0.0021820567497127575
0.002337107630480476
0.0024908737754664547
0.0026426792070927494
0.0027928344997913577
0.002941832799405607
0.0030895414490599094
0.0032356927475554556
0.0033798555537059276
0.003522169329313728
0.0036631967130379595
0.003803787181764215
0.003944996121925617
0.0040880548398934315
0.004234355482283122
0.004385441053198126
0.004542995802804902
0.004708834591597838
0.004884890154536953
0.00507319551050306
0.005275831608996433
0.005494432853810572
0.005723504319558633
0.0058561293488120746
0.0003185454824569613
0.00034583287959339467
0.00040027867439724004
0.000464791323107726
0.0005384440792560274
0.0006213443876407608
0.0007135371207942215
0.000814917851394051
0.0009252230993886796
0.0010440313267556071
0.0011707703049621053
0.0013047304545909164
0.0014450832119060964
0.0015909019851950415
0.001741180024561339
0.0018948371381922668
0.002050693507752138
0.002207488968004346
0.002363977339863874
0.002519110136297017
0.0026722869258195155
0.002823297264687075
0.0029721352126057927
0.0031187954769627655
0.003263129992121381
0.003405103308153433
0.0035448815188487896
0.003682961325374987
0.003820134026561265
0.003957436956316423
0.00409611665479309
0.0042376063049294034
0.004383510421585927
0.0045355928752625245
0.004695765811192303
0.004866077759654498
0.005048697558272629
0.005245864328779963
0.005459401189961838
0.0056841120693587625
0.005814582867965352
0.0003067692625929521
0.0003341603252655182
0.0003891185184777135
0.0004546632450363545
0.0005298475689637012
0.0006147428660735816
0.0007093512735960656
0.0008135201641350802
0.0009269325180107234
0.0010491074555452218
0.0011794065666684045
0.0013170455493024139
0.0014611101982629875
0.0016105746755669416
0.001764319250518086
0.0019211441968116313
0.002079793204845572
0.002238998540867131
0.002397568499105883
0.002554508168921891
0.0027090960804374
0.002860899332206784
0.003009691579007529
0.0031553511228907664
0.0032978443533222784
0.003437245136587969
0.003573830794682949
0.0037081253353046673
0.003840921107273969
0.003973262458071925
0.0041064226044046056
0.004241883159094708
0.00438131839740708
0.004526582936823338
0.004679701241072183
0.004842857249995783
0.005018380629004342
0.0052087000538137635
0.005415866849521277
0.005635054483192009
0.005762779053811565
0.0002926752989979574
0.0003202065399270551
0.00037580609561135077
0.0004426105625269495
0.0005196457476011071
0.0006069388887121766
0.0007044410525812548
0.0008119425141097871
0.0009290627899393813
0.0010552502766240704
0.0011897873384137953
0.0013318006646631832
0.0014802764583410682
0.001634079660583409
0.0017919765101270038
0.0019526628890543635
0.00211480257112948
0.002277082729676653
0.0024382862537989307
0.0025973652514644677
0.002753496649018085
0.002906093830081323
0.0030547831450563464
0.0031993702953651898
0.003339819416643732
0.0034762705407738385
0.0036090672293040754
0.0037387901952255055
0.0038662706832312778
0.003992589901902573
0.004119067479107956
0.004247247516379489
0.0043788859948842495
0.00451594060669376
0.004660562545200033
0.004815089009123038
0.004982033000504219
0.005164041210651083
0.005363430755750241
0.00557581982312045
0.00570013917288729
0.00027623446235124283
0.00030394566440991746
0.0003603236308694854
0.00042862571320761696
0.0005078423035028452
0.0005979483809155754
0.0006988363900313246
0.0008102319805376384
0.0009316830352996694
0.001062557830352785
0.0012020486365057466
0.0013491811019085938
0.0015028297297946854
0.0016617395978447689
0.0018245549191317429
0.001989855581269311
0.0021562035989120365
0.0023221995649051748
0.0024865450677422265
0.002648102244680035
0.0028059376769438604
0.002959344175355144
0.00310784148873761
0.0032511667768688308
0.003389269472163969
0.003522314689207789
0.003650696964355206
0.003775053353970344
0.003896272202068778
0.0040154931619416434
0.004134101387639353
0.004253718919593223
0.004376196414871635
0.004503606745795157
0.004638240699436518
0.0047826039245129435
0.004939411886236997
0.005111554246665452
0.005301648906584442
0.005505836549920423
0.0056260139358963075
0.00025745959362512017
0.00028538960498551464
0.00034268371464642487
0.0004127240568266177
0.000494456639849089
0.0005877964301157946
0.0006925711022376903
0.0008084362199490056
0.0009348621683180923
0.0010711298855978558
0.001216332336995375
0.0013693827367210222
0.0015290305132401219
0.0016938857609984615
0.0018624526925521512
0.0020331723687458327
0.002204474167050902
0.0023748338295838615
0.002542833509720704
0.002707217012877217
0.0028669335865210603
0.0030211660188775497
0.003169343927252049
0.0033111473538135856
0.003446506767913631
0.003575604537101993
0.0036988780576498203
0.0038170233150236783
0.003930996014160387
0.004042009524672362
0.0041515301063761055
0.004261271472415488
0.004373190453264673
0.004489485117435864
0.00461259565289682
0.004745207354502077
0.0048902526122022736
0.005050884115037818
0.005230051209844078
0.005424496389501369
0.005539708774938493
0.00023642667131201743
0.00026460646136668793
0.00032294269127421896
0.00039495183552893076
0.00047952632911592936
0.0005765143763063348
0.0006856750066781759
0.0008065911799433886
0.0009386529218748198
0.001081049063255585
0.0012327653470304838
0.0013925906930178974
0.0015591332498858567
0.001730847296701945
0.0019060712965708081
0.002083076454096306
0.002260123882555811
0.002435526987738122
0.0026077142071220622
0.0027752865345254106
0.002937064726409907
0.0030921232343722516
0.0032398107491082256
0.0033797597984136
0.0035118892185275062
0.0036364026905029265
0.003753785571272207
0.003864800438992726
0.003970481763736014
0.004072129848384202
0.004171305120185386
0.00426982406153106
0.004369758211289415
0.00447343712593592
0.004583455517235776
0.004702683900842717
0.004834279676767748
0.004981671854438661
0.0051481655540939
0.00533118424833424
0.005440516757052703
0.00021329922488863432
0.00024174143630043387
0.00030121501484045457
0.000375393583533774
0.0004631075598455595
0.0005641336176904256
0.0006781617367667876
0.0008047039306488579
0.0009430710156941459
0.0010923579606974933
0.0012514366513010306
0.0014189587911211758
0.0015933712918043885
0.001772945534931379
0.0019558205737005255
0.002140058870445239
0.002323711566846979
0.002504888846792408
0.0026818299368180846
0.0028529671279177624
0.0030169789975435877
0.003172829873099845
0.0033197947776432836
0.003457471317839489
0.0035857811825627745
0.003704964468258438
0.0038155696678692963
0.00391844156127794
0.004014708899124288
0.00410577342798378
0.0041933018032133396
0.00427922192220282
0.004365724793004963
0.0044552727076710465
0.004550613744611567
0.00465480180130649
0.004771219065319324
0.004903575285571421
0.005055547017373882
0.005225315506010436
0.005327760181334422
0.0001883554088765219
0.0002170394708889791
0.00027768772196412063
0.0003541780073228077
0.00044527253375241594
0.0005506750310185824
0.0006700111667050614
0.0008027295310033469
0.0009480683593320738
0.001105031019751389
0.001272370513642512
0.0014485869485009733
0.0016319413025433962
0.001820487304365785
0.0020121213272436492
0.0022046480773754815
0.00239585783711348
0.0025836094360591846
0.0027659122499888483
0.002941000658313446
0.003107395505150265
0.0032639491174590073
0.0034098727132911965
0.0035447473432515765
0.0036685210975630623
0.003781496275359996
0.0038843104568826955
0.003977915054849622
0.004063554696012073
0.0041427500066259434
0.004217286149475336
0.004289208796564678
0.004360828801565705
0.00443473617564427
0.004513823272491034
0.004601316207405606
0.004700811357360304
0.004816292488718726
0.004951812093072822
0.005106380764129271
0.005200841002101038
0.00016201613879783178
0.00019086808581398392
0.0002526335202561913
0.00033148096228634885
0.00042610254546079896
0.0005361328777757087
0.0006611453260541427
0.0008005407389999558
0.0009534989897713828
0.0011189396838966828
0.0012954941924711962
0.0014814947602415514
0.0016749854386425985
0.0018737573248106747
0.002075407821760252
0.00227742067450347
0.0024772608272004026
0.002672476149328813
0.002860797203716369
0.0030402265759463245
0.003209110988632368
0.0033661918859966334
0.0035106331892063468
0.003642027647811152
0.003760385437115431
0.003866109925834744
0.003959966073257038
0.004043046694009284
0.004116741162898033
0.004182710398493308
0.004242870910391091
0.004299390060700153
0.004354693727179398
0.004411486980384496
0.004472787593629262
0.00454197131969546
0.004622825451815018
0.004719587771486332
0.004836677519600605
0.004973997746514698
0.005059300073780259
0.0001348713233522706
0.00016373770061320795
0.00022642029115964912
0.00030752380552875045
0.0004056756459989913
0.0005204524088453615
0.000651397113778414
0.0007978897825760907
0.0009590768178257974
0.0011338098985543223
0.0013205993677850168
0.001517590870297249
0.0017225719043965216
0.0019330117416316162
0.002146134233921489
0.0023590187604277287
0.0025687208568118233
0.0027724012647601447
0.0029674511120366203
0.0031516017352347064
0.0033230101414329556
0.003480314797263656
0.003622660572268217
0.0037496954176972886
0.003861544250295505
0.00395876726231943
0.004042310247089123
0.0041134542518053525
0.004173770595894761
0.004225086088165126
0.004269461765357114
0.004309187344882771
0.0043467925208930365
0.004385075551762869
0.0044271489733901164
0.004476501535276946
0.004537073120297649
0.004613319636326114
0.004710002908406206
0.004827969347135328
0.004902883988284075
0.00010769936260594906
0.00013631513769212362
0.00019951375366756793
0.00028256563479344305
0.00038404852701118757
0.0005035015559161475
0.0006404721705949407
0.0007943621704590393
0.0009643250333946444
0.001149171874281281
0.001347297545861117
0.0015566391211231214
0.0017746759722954875
0.001998476405357466
0.00222479017358102
0.002450180096527013
0.0026711803795450404
0.0028844652876031177
0.003087010429556965
0.0032762304038730554
0.0034500806255877447
0.0036071168517156364
0.0037465120437918083
0.003868035528937296
0.003972003334033487
0.004059210355827889
0.004130855347000411
0.004188468400505366
0.004233848720207971
0.004269018268653109
0.004296194830956239
0.004317786299660582
0.0043364069189197815
0.004354915408997107
0.004376474729866781
0.00440463321713148
0.004443425279717871
0.004497472090500144
0.004571835700398782
0.004668345889395889
0.00473161894995432
8.147131823936588e-05
0.00010942358315752643
0.000172470151672987
0.0002568884951899346
0.00036123490936594175
0.000485039095732233
0.0006279050185093595
0.0007893237352064085
0.0009685186267824762
0.0011643037743913672
0.0013749713783675857
0.0015982240535154508
0.0018311652159884908
0.0020703551102231577
0.0023119319950750993
0.0025517888350231627
0.002785787080841539
0.0030099831069033424
0.003220840863793723
0.0034154071935205543
0.0035914329932825403
0.003747432702435764
0.0038826839265751
0.003997176769429243
0.004091527390177988
0.00416687205558142
0.004224757127092615
0.004267037884372361
0.004295795439060891
0.004313277823159509
0.004321868114970485
0.004324080560845845
0.004322584186287631
0.004320252933253954
0.004320241465527892
0.004326086453412041
0.004341834958015225
0.004372188494282158
0.004422461621040438
0.004495487675825576
0.004545881189836644
5.7333832520283426e-05
8.402155379761264e-05
0.00014591306459901782
0.0002307832557033513
0.00033718666925603455
0.0004646792468248646
0.000613011462994498
0.0007818649222563598
0.0009706247196056943
0.0011781738754383644
0.0014027261935711907
0.0016417202746409558
0.0018917944258497043
0.002148854962073129
0.0024082388690213046
0.00266495703458092
0.0029139904796826204
0.003150601848024877
0.003370621856070209
0.0035706754178808624
0.0037483242426545544
0.003902117951369979
0.004031560543542292
0.004137010282876451
0.004219536949400053
0.004280761203971714
0.004322697679927741
0.004347618092368831
0.004357944810998531
0.004356180118386402
0.004344872421057403
0.004326618211917674
0.004304097344107044
0.004280139065795135
0.00425781674810216
0.004240570644371187
0.004232358611128043
0.004237839216011948
0.004262447587705353
0.004310130026845745
0.004346490434681968
3.652993994942773e-05
6.11455399278996e-05
0.00012052615673594214
0.00020454741183655
0.0003117605140593935
0.000441850768138241
0.0005948456724907873
0.0007707539431005615
0.0009692521936974062
0.001189390899539788
0.0014293496118120844
0.0016862727609826844
0.001956217874087306
0.0022342383316711705
0.002514605345419505
0.0027911503243969057
0.003057685218411407
0.0033084413283627602
0.0035384629296778347
0.0037439017948402535
0.003922180395676429
0.004072017553633572
0.004193334230501176
0.00428707274569772
0.004354969122966632
0.004399315744798434
0.004422743671142686
0.004428044097088167
0.00441803879901078
0.004395501979711144
0.004363131059047223
0.0043235614715401455
0.0042794202538842625
0.004233413552002874
0.004188445129092843
0.004147763694856924
0.004115139828931409
0.00409505693284981
0.004092876697660975
0.00411340666323027
0.004134638882077833
2.0475696165479596e-05
4.192082994935388e-05
9.703920317573104e-05
0.0001784225631120213
0.00028470308103722324
0.0004158296361921032
0.0005722531329066979
0.0007544943301265421
0.000962704621584013
0.001196252225601812
0.0014533628289560001
0.0017308646631803194
0.0020240885908411094
0.0023269640781488944
0.00263232509840531
0.0029324015502682262
0.0032194297744421807
0.003486285766931608
0.0037270369050208065
0.003937327890187906
0.004114556180210094
0.004257838466885006
0.00436780789109648
0.004446303441557681
0.00449601618337875
0.004520147453367619
0.004522116740512413
0.004505339652128241
0.004473081500377322
0.0044283823699436346
0.00437404428857285
0.004312669863541746
0.004246742947941727
0.004178744439101364
0.004111299566949155
0.004047355973141919
0.00399039201327504
0.003944661478935099
0.003915318421706518
0.003907885340983621
0.003912938224084757
0.0002625805686040462
0.0003941791933962745
0.0007425058776107744
0.001486166381394238
0.0017870399447882503
0.002437447890890238
0.00277037819521104
0.003403609592913752
0.003685599110314529
0.004146367803533876
0.004318200743974989
0.0044501582514881
0.004543994423270404
0.00460280140994629
0.004630496628273186
0.0046313642754157395
0.004204702307614966
0.00411675797277851
0.0037959951299651393
0.0037417779146620054
0.003697964345976568
1.0629953325243094e-05
2.923854345580799e-05
7.980203155835595e-05
0.00015789141491203982
0.0005537506081006748
0.0009612262277193118
0.001209690214139258
0.0021066559869554673
0.003095654032292246
0.003934737694871337
0.00460969369035741
0.004569529358634183
0.004514527914808673
0.004447906465369676
0.004372463314569632
0.004290653030135896
0.004029063901722385
0.003944168441867627
0.00386516944445248
0.003708376867878632
6.655411251656031e-06
2.1901699741618167e-05
6.719777638990148e-05
0.00014087550100479974
0.00024199190320757093
0.0003711531842276097
0.0005298710942897235
0.000719930375559419
0.0009426938864353199
0.0011984185195817298
0.0014856212279715105
0.0018005882647243849
0.00213713640365558
0.0024867269764306905
0.002838982424481996
0.003182567312365395
0.0035062963154366563
0.003800258769093799
0.0040567385468839945
0.004270765343978742
0.004440237468481046
0.004565661383040557
0.004649626674915201
0.004696159329586109
0.004710080491582524
0.004696458196973579
0.004660196547674884
0.004605770509011713
0.004537091495014055
0.004457478088242818
0.004369704388074595
0.00427610293803101
0.004178705135599166
0.004079409670275641
0.003980175948102484
0.0038832445975004507
0.0037913947075854226
0.003708238169164933
0.003638584235113121
0.00358847133140242
0.003568461496497006
5.084179294247349e-06
1.71502971536224e-05
5.741539064025594e-05
0.00012676267106017216
0.00022434248251857868
0.0003510291927504061
0.0005088445554404189
0.0007002015729049299
0.0009271127403181666
0.0011903757682130312
0.0014887983431229321
0.00181856773925876
0.00217291083212711
0.0025421865089943372
0.0029144918244317884
0.003276745925429967
0.0036160753897816066
0.003921218999103174
0.00418365304833757
0.0043982227131639275
0.004563213231094166
0.0046799411276391666
0.0047520381790009366
0.004784621958251496
0.004783513172255976
0.004754599982749096