# vtk DataFile Version 2.0
time_10.vtk
ASCII
DATASET UNSTRUCTURED_GRID
POINTS   4141  float 
0.00010780488028876259        -3.2598424049536676e-17       0.0                           
0.25000000000000033           0.00010243846295127932        0.0                           
0.5000993894646146            -5.1916628251634415e-17       0.0                           
0.75                          9.245688673669413e-05         0.0                           
1.0000885391345455            -5.630627004678483e-17        0.0                           
1.25                          7.973598583413799e-05         0.0                           
1.5000748336002567            -9.216734739034175e-17        0.0                           
1.75                          6.400757734226002e-05         0.0                           
2.00005808512761              -3.1607415693233566e-17       0.0                           
2.25                          4.524622811709735e-05         0.0                           
2.5000383484475206            -2.3611861172799552e-17       0.0                           
2.75                          2.366917520641579e-05         0.0                           
3.0000159365384906            2.6238916435578526e-17        0.0                           
3.2499999999999996            3.170020624899335e-17         0.0                           
3.4999910225055406            -1.7482345430562747e-16       0.0                           
3.75                          -2.718011192499405e-05        0.0                           
3.9999634883190933            8.950552460311155e-17         0.0                           
4.25                          -5.567294376351454e-05        0.0                           
4.499934506988263             -5.420991431327871e-16        0.0                           
4.75                          -8.558745855444857e-05        0.0                           
4.999904143306939             -3.4195413406339256e-16       0.0                           
5.25                          -0.00011684339348076637       0.0                           
5.499872429781519             1.1026196223115297e-16        0.0                           
5.75                          -0.0001495342747791698        0.0                           
5.99983920321362              -2.993011348643352e-17        0.0                           
6.25                          -0.00018396425394104474       0.0                           
6.499804091681075             8.445231619579469e-16         0.0                           
6.75                          0.00010746056030282787        0.0                           
7.00010489575981              7.47820093313543e-06          0.0                           
7.2500081081754475            9.905575728923966e-05         0.0                           
7.500095736928278             9.46813395680348e-06          0.0                           
7.750010191355788             8.820930370066116e-05         0.0                           
8.000083971560022             1.1704517110021742e-05        0.0                           
8.250012485897441             7.44979188341305e-05          0.0                           
8.500069251041193             1.4076436945204137e-05        0.0                           
8.750014877050793             5.773240688241561e-05         0.0                           
9.00005146748537              1.6468845945524424e-05        0.0                           
9.250017252649682             3.796389152843848e-05         0.0                           
9.500030747631083             1.87792889533499e-05          0.0                           
9.750019515743686             1.5453078902617742e-05        0.0                           
10.000007383144752            2.0922760398641115e-05        0.0                           
2.1699766393015822e-05        0.29999037260246175           0.0                           
0.24998146226146595           0.3000230951260099            0.0                           
0.5000237186067928            0.2999630060139846            0.0                           
0.7499535066369921            0.3000249314564617            0.0                           
1.000025523159599             0.2999340158557999            0.0                           
1.2499240383075867            0.300026687441186             0.0                           
1.5000272658855784            0.2999036390709846            0.0                           
1.7498932185915943            0.3000284326623082            0.0                           
2.0000290285290485            0.2998719195876211            0.0                           
2.2498610264259713            0.3000302645925118            0.0                           
2.5000309124180027            0.2998386959601215            0.0                           
2.7498272282207887            0.30003228549823224           0.0                           
3.000033017111267             0.2998035945276204            0.0                           
3.2497913856044494            0.300034584630129             0.0                           
3.500013747241774             0.30010387441028546           0.0                           
3.7501010912751536            0.300016196564612             0.0                           
4.000017527856104             0.3000947422932193            0.0                           
4.250091136147345             0.30002037198862125           0.0                           
4.500021869423269             0.300082979692827             0.0                           
4.750078405852402             0.3000249726728424            0.0                           
5.000026560905305             0.30006823121913345           0.0                           
5.250062625340062             0.3000297672155293            0.0                           
5.5000313688263684            0.3000503855489777            0.0                           
5.750043763143262             0.30003453157647464           0.0                           
6.00003607982955              0.30002955704972006           0.0                           
6.250021993180195             0.30003908647953176           0.0                           
6.500040543607842             0.30000597628227027           0.0                           
6.7499975659794424            0.3000434291268094            0.0                           
7.000044827985601             0.2999800171886189            0.0                           
7.249970898871658             0.3000474353881406            0.0                           
7.500048670274826             0.29995206517950207           0.0                           
7.749942384784052             0.3000510613155221            0.0                           
8.000052229389826             0.29992255142335866           0.0                           
8.24991241141972              0.3000545416162827            0.0                           
8.500055699663541             0.29989169729815507           0.0                           
8.74988112002261              0.30005805730474744           0.0                           
9.000059272595344             0.29985949599689293           0.0                           
9.249848429133907             0.3000618151708791            0.0                           
9.500063157369834             0.29982571495863797           0.0                           
9.749814031745622             0.3000660173673127            0.0                           
10.000067546794874            0.2997899068411749            0.0                           
0.00010470308364376515        0.6000205624169902            0.0                           
0.2500223466440914            0.6000994059564988            0.0                           
0.5000963843828101            0.600026247745779             0.0                           
0.7500283466791553            0.6000894845480246            0.0                           
1.0000855699705722            0.6000327851732234            0.0                           
1.2500350994262983            0.6000767432813809            0.0                           
1.5000718133527624            0.6000398515933039            0.0                           
1.7500422629555517            0.6000608994542537            0.0                           
2.000054916185351             0.6000470928798239            0.0                           
2.250049488280794             0.6000419188895565            0.0                           
2.5000349202009535            0.6000541905095506            0.0                           
2.7500564825400193            0.6000199713064905            0.0                           
3.000012043234413             0.6000609341247699            0.0                           
3.2500630961746397            0.5999953664216192            0.0                           
3.499986658692305             0.6000672697678037            0.0                           
3.7500692583733217            0.5999685713298915            0.0                           
3.999959217621197             0.6000730390094224            0.0                           
4.2500748519143805            0.599939966804919             0.0                           
4.499930096672401             0.6000783760964826            0.0                           
4.750080107268787             0.5999099124153251            0.0                           
4.99989960776778              0.6000835608915703            0.0                           
5.250085306190185             0.5998785752244773            0.0                           
5.499867839108879             0.6000888934381595            0.0                           
5.7500907594922595            0.5998458841270966            0.0                           
5.999834639207138             0.6000946947551864            0.0                           
6.250096785567864             0.5998115286925167            0.0                           
[...]
POINT_DATA  4141
SCALARS Con float 1
LOOKUP_TABLE default
0.00152287624704146
0.0016666992834358204
0.00195278926081911
0.0022881924868485824
0.0026683016972841086
0.0030943930961545647
0.003567472003302316
0.004087783250096619
0.004654743308728264
0.005266933536283084
0.005922127100026117
0.006617344926465618
0.007348934874948704
0.008112664659078684
0.008903814194918779
0.009717241532418189
0.010547428894303832
0.011388418595243215
0.012235874309986539
0.01309656199536497
0.014058248368266758
0.015033110461984944
0.015929191170712988
0.01678585168744527
0.017649112599362617
0.01851678269077273
0.019390165940699713
0.020271252416748375
0.021163362359795063
0.02207088197357114
0.022999120448348107
0.02395417708945655
0.024942823600205655
0.0259723905357195
0.02705065321593579
0.02818571373463154
0.02938586996780514
0.03065933558534373
0.03201175052667746
0.033408734283387614
0.03421012634890967
0.0015536874760689638
0.0017011339826500259
0.0019932545921046026
0.0023351725039674675
0.0027222972921088894
0.003155788652065475
0.0036365337342566576
0.004164651753481355
0.004739432289562316
0.005359334151447873
0.006022019068173109
0.006724416586901324
0.007462817099744236
0.008232990177678316
0.009030328620113175
0.0098500433437598
0.010687458282224511
0.011539061877229216
0.01240370109259326
0.01330452225644377
0.014221840951557829
0.01512796782035774
0.016015809204582582
0.016900274702915535
0.01777408106506921
0.018647264741807563
0.019523253376383356
0.02040571634942644
0.021298768673018952
0.02220728526221532
0.023136907207270102
0.02409399051437775
0.025085523495873483
0.026119030099749828
0.02720246382099966
0.028344093312520625
0.029552371860881922
0.030835658350358106
0.032199655170681206
0.03361041350235383
0.034420594891896035
0.0015395300750296933
0.0016867714340286165
0.001979274276194384
0.002322393835869002
0.00271145286789958
0.003147584171450277
0.003631628623741262
0.0041636523505536125
0.004742888680212569
0.0053677427342314525
0.006035833569603162
0.006744073345131242
0.007488786103481467
0.008265874248298511
0.009071057187450984
0.009900231485867758
0.0107501522145367
0.011619136453134267
0.012510983608619583
0.013401233604682601
0.014262121018643137
0.015129300413577282
0.01602578066608164
0.016918219256298654
0.01780282922555116
0.018681082705186557
0.019558193458023895
0.020438772264624386
0.021327712221166636
0.022230390613534066
0.023152806887065922
0.024101601248755197
0.025084017919237363
0.02610783552543751
0.027181277594848157
0.028312908222622862
0.029511505953121416
0.03078577369684053
0.03214175757934521
0.03354532068524074
0.034351273038357076
0.0015147492164070287
0.001661992746255583
0.001955224272766224
0.0023002938811703074
0.002692526488091703
0.0031329928931620224
0.003622455276228559
0.004160886884251412
0.004747420056265913
0.005380356769801482
0.006057218285596841
0.006774834299516798
0.0075294745498109645
0.008317028124971397
0.009133234110753112
0.009973965259231088
0.010835368112170302
0.011713865583601555
0.01259922998847484
0.013479483171710249
0.014353408248110251
0.015225845204770789
0.016103581774132902
0.016988206648175536
0.017869610964830845
0.018746014163347098
0.019619381427254168
0.02049375915147273
0.021374023513293774
0.022265768759510963
0.023175271610662827
0.02410947709824623
0.02507595978028565
0.02608286204133481
0.02713881275564842
0.028252828194392014
0.02943418511187168
0.030692118970244323
0.03203321089121921
0.03342409081080124
0.034223887793849946
0.0014797186252920194
0.001626961949565856
0.0019212863354478443
0.0022691677149222
0.0026659196264908194
0.003112526891076112
0.0036096353889073663
0.004157081125544149
0.004753842959528585
0.005398056953360262
0.006087068401374954
0.006817520439724195
0.007585477502593391
0.008386575812185963
0.009216178658720393
0.010069452891647008
0.010941259183996802
0.01182493265985491
0.012712983505314019
0.013599046918802041
0.014479938294624087
0.015357384674723138
0.016233948481248556
0.017109222576699182
0.01798185195023763
0.018849723965463847
0.01971362778260679
0.020576487344525548
0.021442752365414916
0.022317946558615378
0.023208490489658482
0.024121601460917515
0.025065219658087702
0.02604793338369141
0.02707889434251056
0.02816771748788982
0.02932435114138584
0.03055877255315479
0.0318783973611499
0.03325122681512942
0.03404247750280652
0.0014341254811849754
0.0015814214507550058
0.0018772484354342965
0.0022288565189175456
0.002631533220403374
0.003086144715723828
0.003593181175958727
0.004152294260867328
0.004762253236676359
0.005420959954643733
0.006125498170027458
0.006872214074755406
0.007656821962323425
0.008474520749190756
0.009320089232887232
0.010187917151290242
0.011071853562163971
0.01196535387589465
0.012861941572269015
0.013756284060979843
0.014645314539652253
0.01552798847681872
0.016404324438968946
0.017274338347573727
0.018137387514758897
0.018993345363541633
0.019843108284294034
0.020689275754282803
0.021535980968983653
0.02238865520747374
0.023253824037282142
0.024138972138994776
0.025052440875396608
0.02600333828391602
0.027001447833261576
0.028057126702464606
0.02918117827128034
0.030384557539076307
0.031675845562197054
0.03302476637371592
0.03380446666310787
0.0013776707675555498
0.0015250944438765651
0.0018228915440786106
0.0021792054248238888
0.0025892789178935177
0.003053825188976899
0.003573138324325453
0.004146639146259561
0.004772832707279176
0.0054493211821592035
0.006172847651238157
0.006939367141080504
0.007744138681130148
0.008581826220448703
0.009446593115215434
0.010332173567790292
0.011232003881023864
0.012139463530565697
0.013048360764755452
0.013953524410925778
0.014851201220991053
0.01573909947941889
0.016615993689215888
0.017481238392290745
0.018334664417955542
0.019176676707420723
0.02000871935829152
0.020833517811494083
0.021655210718460334
0.02247927701516088
0.023312416854420558
0.024162432954287112
0.025038127830629975
0.025949210683764334
0.026906205896061405
0.027920354896249857
0.02900349645144451
0.030167788107267765
0.03142321728931154
0.03274157402124698
0.03350635288880458
0.0013101123674289063
0.0014577596930870763
0.0017580422011997468
0.002120100602326103
0.002539107299492933
0.0030155863533615195
0.003549597039837446
0.004140286932502736
0.004785848432879921
0.005483527230651939
0.006229659429823222
0.007019735279637735
0.007848486246356761
0.008709990577537914
0.009597794028566704
0.010505061546180616
0.011424781645980426
0.012350065278641522
0.013274518354654746
0.014192618474516711
0.015099982241929051
0.015993428350448764
0.016870872630534803
0.01773117768074879
0.018574060940092008
0.019400177098585374
0.020211260116291402
0.021010301122916013
0.021801634143053986
0.022590947500686496
0.02338522896765812
0.0241926869189338
0.025022666750095245
0.025885569046915528
0.02679276773573878
0.02775652291004347
0.028789874229942714
0.02990637655656189
0.03111765535456886
0.032397997215980995
0.033144027701767956
0.001231345792962633
0.0013793195400469515
0.0016826285425578563
0.002051508718345497
0.002481030536070675
0.0029714921785465817
0.0035226834940680772
0.0041334439211701815
0.0048016146075682675
0.005524039417037887
0.006296594076714844
0.0071142443205592975
0.007971133915209247
0.008860703082374674
0.009775841074016191
0.010709079682632197
0.011652838670880883
0.01259972004444983
0.013542829826888907
0.01447607763357251
0.015394399181011771
0.016293872275799103
0.01717173841805571
0.018026377614637466
0.018857300945116694
0.019665181129825248
0.020451931066618724
0.02122078388774671
0.02197635329809527
0.02272464869698247
0.023473053124560304
0.024230275600158783
0.02500629264064647
0.025812286547615745
0.02666058202447962
0.02756457793210595
0.028538660252755914
0.02959795947166331
0.030755972232303686
0.031989944631934684
0.03271286590184698
0.0011414985023118747
0.0012898839336733534
0.0015967434812416885
0.001973518415687312
0.002415141328361119
0.002921649179330183
0.003492535083255852
0.00412630671617903
0.004820428422874607
0.005571309753830144
0.006374323243965903
0.007223855907979351
0.008113399036788147
0.00903567999280168
0.009982838853746219
0.010946651836212492
0.01191879827197869
0.012891159550982434
0.013856125398046978
0.014806875239357996
0.015737604127746406
0.01664367746240028
0.017521719509600773
0.01836965882536014
0.019186755961285103
0.019973635359109412
0.02073232310532146
0.021466285950999385
0.022180457221650227
0.022881243368627933
0.02357650949704161
0.02427555046374834
0.024989054471597067
0.0257290649737136
0.026508942353511856
0.027343322647987237
0.02824805964415973
0.029240016344550434
0.030334779090057534
0.03151304099180736
0.03220789212430294
0.0010410415580990558
0.0011898674517716794
0.001500714781812611
0.001886381467747896
0.0023416247140851322
0.0028661894490985443
0.0034592565142558245
0.0041189941936108235
0.004842481428095574
0.005625675603938932
0.006463412304579212
0.007349445603221302
0.008276536837122329
0.009236597050522422
0.010220884678768529
0.011220255242626116
0.01222545353223931
0.013227431102841363
0.0142176655788041
0.015188455619557424
0.016133169554694307
0.01704643539098201
0.01792427242259376
0.018764174331259792
0.01956515895430169
0.020327797490463484
0.021054232193335534
0.021748184670834735
0.022414955330954302
0.02306141334519749
0.023695979480620494
0.024328605785538797
0.024970757046487883
0.025635397271437693
0.026336981794467928
0.02709145163625111
0.02791621618740265
0.02882999395285104
0.02985065071687516
0.03096282604061699
0.03162399985637015
0.0009309169131585003
0.001080097832427214
0.0013951789391453237
0.001790549988364127
0.0022607584016052368
0.002805235532352547
0.003422852348099449
0.00411145263818907
0.004867743867290106
0.005687231489275377
0.006564189918848593
0.007491683599164485
0.008461649761025366
0.009465049557241242
0.010492087894806164
0.011532495044879078
0.012575855484969388
0.013611962799141057
0.014631175217491292
0.015624746310272287
0.016585109744711484
0.01750610511155826
0.018383141120766746
0.019213300891436323
0.01999539903276362
0.02073000247980632
0.02141942608837488
0.022067712218418304
0.02268060177936843
0.02326550302930877
0.023831464038974667
0.024389154577216545
0.02495086185807246
0.025530502747749734
0.026143651919555512
0.026807581581876853
0.027541298092883266
0.02836544973508501
0.029300325865235077
0.030335009284894885
0.030956234785247474
0.0008126755210708285
0.00096193105897082
0.0012811536628379342
0.001686704174579013
0.002172896068241236
0.0027388415407373795
0.003383130533051143
0.004103328728290545
0.004895816648971076
0.005755672020517893
0.006676596062334055
0.007650903542109747
0.008669592988611887
0.00972250596881174
0.010798574948316413
0.011886149157452664
0.012973378612581788
0.014048629338128792
0.015100899332890279
0.016120205805122745
0.017097919256743407
0.01802702838805346
0.01890232914803584
0.0197205402007018
0.020480353820960893
0.021182435483434316
0.021829387255441552
0.022425689869696827
0.022977637492333693
0.0234932772464913
0.023982364003668002
0.024456338662455442
0.024928335911253516
0.02541322420361306
0.02592767702130249
0.026490269734627283
0.027121586129454783
0.027844213408789162
0.028680944676407062
0.029625780444302266
0.03020014431774883
0.0006886167528633352
0.0008373637000900666
0.001160100598351595
0.0015757632650188428
0.0020784272695163323
0.0026669050732225923
0.0033395718266552186
0.004093805063137443
0.004925745092382637
0.005830099219408611
0.0068000005514411545
0.007826950280490077
0.008900867012533838
0.010010255400384215
0.01114249294097546
0.01228421990517767
0.013421805152375867
0.01454185185456005
0.015631703419110965
0.016679911612988933
0.017676635709246973
0.01861395167424085
0.019486062215747255
0.020289409745892908
0.021022703614392554
0.02168687934817808
0.022285011135408712
0.022822199549638288
0.02330545536494263
0.023743597822282286
0.024147182404387676
0.024528469788159053
0.0249014437652856
0.025281882101893947
0.025687479809994463
0.02613801839628142
0.026655561984683735
0.02726456425697142
0.0279903191633724
0.028832173468416527
0.029352193603820687
0.000561911232514142
0.0007091268776583163
0.0010339659556740258
0.001458870818873869
0.0019777087741964755
0.002589046985009102
0.0032911628987994934
0.004081395619922978
0.004955791004971715
0.005908790419985683
0.006932988667962047
0.00801900502293682
0.009155500766577609
0.010329360348444918
0.01152603433845632
0.012730022960102014
0.013925461992654991
0.015096760900709067
0.01622923828696781
0.017309702749765888
0.018326936950484426
0.019272057183274124
0.020138737173377046
0.02092330051289998
0.02162469898064438
0.022244402990048113
0.02278623487952018
0.02325617676612584
0.02366218220073393
0.024014016982486043
0.024323148989787775
0.024602701913606126
0.02486748230187064
0.02513408521573661
0.02542107936793743
0.02574926692838344
0.026141998517976554
0.026625420831538314
0.027227230403802007
0.02795247653229246
0.028410240164329
0.0004366797803023187
0.0005807378873003505
0.0009051821220885648
0.0013373470551175728
0.0018709668913719332
0.002504462861130545
0.0032361971902708487
0.004063703364082977
0.004983164551449296
0.005988928378278365
0.007073116938066779
0.008225394304335585
0.00943293738961762
0.010680634748126232
0.011951511178405023
0.013227348378243112
0.014489446704136886
0.015719455971720753
0.016900196335327817
0.018016395311886535
0.01905528224021283
0.020007003440908614
0.020864845937075906
0.021625280340572168
0.022287851731317913
0.022854958975353185
0.023331568128321423
0.023724904924435367
0.02404416654764636
0.024300285597777502
0.024505770856229334
0.02467464151474095
0.024822464804507963
0.024966501929185408
0.02512596409682304
0.02532237909554534
0.025580057461061626
0.02592654953598335
0.026391741073584163
0.026986671346207417
0.027374057194393436
0.00031798212637976155
0.00045647382165450896
0.0007766136901939728
0.0012126053057111578
0.00175818479788513
0.0024117618804890867
0.0031720529952942306
0.004037149628770855
0.0050037267812575855
0.0060663051518048535
0.007216651741047473
0.00844339840757252
0.009731943935242965
0.011064676491211662
0.012421516449542305
0.013780737900409588
0.015119989079254902
0.01641740480828619
0.017652693954217473
0.018808093428270247
0.0198691051955043
0.020824967956938906
0.021668853419889562
0.022397811219020024
0.023012512090933177
0.023516853411483695
0.023917495280810618
0.024223390951674223
0.024445365094399117
0.024595780863425946
0.0246883232678478
0.02473791516203201
0.02476077285677824
0.024774602777434745
0.0247989386073054
0.024855620051761496
0.024969424986683544
0.025168795213736935
0.02548553968721272
0.025936873434464918
0.026245840981274894
0.00021167883139285837
0.0003412267661377097
0.0006514215722232543
0.0010860729540576417
0.0016390114944128133
0.002308797809526329
0.003094962967748975
0.00399670049553062
0.0050116915387109105
0.00613502772531434
0.007358316868621643
0.008669085861531313
0.010050576299270796
0.01148199439279909
0.012939222711034724
0.014395936872485759
0.015825009440714723
0.01720003863962631
0.018496823058299548
0.0196946190363917
0.02077705928309607
0.021732670774509466
0.02255499057634747
0.02324233098417766
0.02379728031092039
0.024226042300507115
0.024537716120040756
0.024743606060950715
0.02485662987652542
0.024890872803500674
0.024861314074551957
0.0247837366573791
0.024674819750016678
0.024552407432357915
0.024435944955367966
0.024347079044469744
0.024310422064429103
0.0243545201293893
0.024512271563138264
0.024807776795068952
0.025030830206183404
0.00012690920243515108
0.0002401762745498102
0.0005329982198526531
0.0009591825650066384
0.0015126121649992688
0.0021924858878471574
0.002999824696786704
0.003935657293674039
0.004999394790528721
0.00618728465216874
0.0074911003392999
0.008897219964017695
0.010386248296417277
0.01193328809272858
0.01350888938343065
0.01508060218079322
0.016614956191593696
0.01807961414603561
0.01944541767295603
0.02068807161607618
0.021789288762739847
0.02273731746653561
0.023526876782489402
0.024158603065754198
0.02463816022056259
0.024975178532658463
0.02518217424868028
0.025273570727119016
0.02526490468393273
0.02517226452519549
0.025011978165557253
0.024800546885549377
0.024554810351351257
0.02429232327231249
0.02403192601882771
0.023794492998313
0.023603856481740702
0.023487814853023318
0.023479068161981895
0.023606999325617085
0.023737045393164086
6.49580637528669e-05
0.00015874199477515673
0.0004248816540295797
0.0008330868063040596
0.0013776453013047798
0.0020590604160201703
0.002880602831997119
0.0038461288977270423
0.0049577938481255406
0.006213875229860203
0.007606853031355597
0.00912199138568472
0.010736663638102379
0.012420615869102297
0.014137245705577456
0.015845807089845003
0.017504271199164874
0.01907243746315978
0.020514835184012335
0.02180301103704425
0.022916935768469857
0.023845446247875896
0.02458580853111346
0.025142611348625468
0.025526255411667913
0.025751303818513555
0.025834913203619143
0.025795502001613402
0.025651744033461064
0.025421919478686866
0.02512361424626603
0.02477373612045785
0.02438880782355119
0.023985500555423568
0.02358138130117474
0.02319586054989736
0.022851323372357
0.022574472000472832
0.022396945199481808
0.022352280170649195
0.022382624064137074
0.001268374522603578
0.0019486426470120856
0.0037793085637205276
0.007769664018692343
0.009409254201902596
0.013006063519681161
0.014879814977992694
0.01852536811198828
0.02019528165908804
0.023021709787051103
0.024125921994582033
0.025008786981272846
0.025672345172853356
0.026127283336959992
0.0263905674855236
0.026483062361967884
0.024165227760479444
0.0236330478091
0.021671329131216985
0.02133948870325442
0.021069894071485955
3.135497203664198e-05
0.00010999849610696336
0.0003484104299240115
0.0007357337140637878
0.0027830661522830055
0.004943157261423159
0.006275509173703634
0.011167206376982278
0.01673710256266962
0.0217047231201366
0.02642742635514257
0.02624645400602253
0.025961933946713048
0.025594011841924676
0.025161001909148776
0.024679571628051854
0.0230986246374955
0.02257921781098201
0.022095137384996202
0.021134840980480414
2.163100190993426e-05
8.21129184751026e-05
0.00029045889911051976
0.0006523194404496764
0.0011637881435319567
0.0018285989794276426
0.0026556060157103744
0.0036555623594536043
0.004837497931317427
0.006205131762742424
0.007753507452770837
0.009466301879454766
0.011314321152303913
0.013255663201541182
0.015237805724263193
0.017201506155201416
0.019085973729186644
0.020834437674113887
0.022399126579886148
0.023744836147765895
0.024850634345279954
0.02570968824528647
0.026327559098376276
0.02671951556394722
0.026907453383068835
0.0269169207389441
0.026774595167591144
0.026506391879193847
0.026136245088319437
0.02568550924995645
0.0251728782874082
0.024614710045956535
0.02402565670980937
0.023419529777549235
0.022810362290980365
0.0222136593415319
0.02164787431957528
0.02113608927781633
0.020708054325498153
0.020400097793488267
0.020276046264896784
2.3806851128481522e-05
6.665342817420117e-05
0.0002467028049264771
0.0005839368994364863
0.0010747805415021116
0.0017242339175154997
0.0025437999230067156
0.0035476110215756076
0.004748308338011532
0.006152783855894741
0.007758087884278834
0.009548003618869915
0.011490973804831751
0.013540049770214342
0.015635278194661338
0.017708449740496162
0.019689536407366988
0.02151365611486993
0.023127233824574857
0.02449226003472447
0.025588081571604165
0.026410775467791064
0.026970642527691095
0.0272886004830726
0.027392260725107587
0.027312311134627957
0.027079594954606878
0.026723048839201208
0.026268489070189957
0.025738129722247725
0.025150673624526866
0.024521820396574547
0.023865066098838345
0.0231927109251513
0.022517032345072182
0.021851627986240525
0.02121291579583505
0.020621987248490847
0.020105940018031034
0.019706145898813775
0.019532142224691088
3.4569181214474525e-05
5.9503227794257736e-05
0.00020981502936104357
0.000520138644116389
0.0009876166849271371
0.0016186630483060716
0.002427741486605815
0.0034329004544144523
0.004651037577594774
0.0060929140370477525
0.0077581834924201265
0.009631049037173168