# vtk DataFile Version 2.0
time_10.vtk
ASCII
DATASET UNSTRUCTURED_GRID
POINTS   4141  float 
5.120395054329683e-05         -1.2267553192223452e-19       0.0                           
0.2500000000000041            4.851881452002043e-05         0.0                           
0.5000470148043428            -4.561526764711555e-17        0.0                           
0.75                          4.363369296585772e-05         0.0                           
1.0000417399170345            -7.854294986296072e-18        0.0                           
1.2499999999999998            3.751430443393178e-05         0.0                           
1.5000351741552127            7.062960237820223e-17         0.0                           
1.75                          3.002956386482823e-05         0.0                           
2.000027225719013             -6.5014116176714304e-18       0.0                           
2.2499999999999942            2.1167245874825754e-05        0.0                           
2.500017921876822             3.234236928877987e-19         0.0                           
2.75                          1.1035204287556237e-05        0.0                           
3.0000074184113634            8.663062980652636e-18         0.0                           
3.25                          -7.521306944070715e-17        0.0                           
3.499995800189561             -4.926349438108631e-16        0.0                           
3.75                          -1.2668928572135824e-05       0.0                           
3.9999830054977563            7.393071116112133e-19         0.0                           
4.25                          -2.584697516157324e-05        0.0                           
4.499969631365962             1.172059853953066e-16         0.0                           
4.75                          -3.9589036152871376e-05       0.0                           
4.99995571549952              -5.910243694384889e-17        0.0                           
5.25                          -5.384612123535998e-05        0.0                           
5.499941283833399             -1.1702581618837925e-16       0.0                           
5.75                          -6.865464045859281e-05        0.0                           
5.9999262648694875            7.884131560663538e-17         0.0                           
6.25                          -8.41585261578675e-05         0.0                           
6.499910479058267             1.8926266759536515e-15        0.0                           
6.75                          5.105498141849579e-05         0.0                           
7.000049764499568             3.7422996654450308e-06        0.0                           
7.250004017930784             4.687099516305308e-05         0.0                           
7.500045246715472             4.61796663158859e-06          0.0                           
7.750004939093796             4.159809140941396e-05         0.0                           
8.000039559614773             5.613961898401302e-06         0.0                           
8.250005963527675             3.502974584381624e-05         0.0                           
8.500032532979155             6.676220884003814e-06         0.0                           
8.75000703512998              2.7073467930799756e-05        0.0                           
9.000024114102345             7.748063618057363e-06         0.0                           
9.250008098384315             1.7754688858397573e-05        0.0                           
9.500014365763306             8.778212071248522e-06         0.0                           
9.75000910441548              7.202830931386823e-06         0.0                           
10.000003432774047            9.722283694831667e-06         0.0                           
1.0068438447373222e-05        0.2999955018883218            0.0                           
0.24999135645411585           0.300010678186721             0.0                           
0.5000109451827757            0.2999827942352474            0.0                           
0.7499784011949941            0.3000114603506302            0.0                           
1.0000117094102425            0.2999694173424982            0.0                           
1.249964833983286             0.3000121953049633            0.0                           
1.5000124350040336            0.299955496127802             0.0                           
1.7499507429841563            0.3000129165216128            0.0                           
2.0000131621689086            0.2999410620668714            0.0                           
2.2499361277352454            0.30001367329636497           0.0                           
2.5000139428335553            0.29992604453843025           0.0                           
2.749920880911641             0.3000145196145577            0.0                           
3.0000148304372587            0.29991026343192173           0.0                           
3.249904787904889             0.3000155046438734            0.0                           
3.500006958073467             0.30004932321616934           0.0                           
3.750047937543718             0.3000080261419073            0.0                           
4.000008612137526             0.3000448185018549            0.0                           
4.250043065513447             0.30000987268788937           0.0                           
4.500010539768637             0.3000391331909243            0.0                           
4.75003694236919              0.300011926919421             0.0                           
5.000012638387209             0.3000320939408864            0.0                           
5.2500294338483116            0.3000140757577654            0.0                           
5.500014793495095             0.3000236463967656            0.0                           
5.750020524712021             0.3000162083710995            0.0                           
6.000016898985396             0.3000138470219712            0.0                           
6.2500103008039325            0.30001823431543034           0.0                           
6.500018878042716             0.3000028092066538            0.0                           
6.749998885668154             0.3000201492763224            0.0                           
7.000020761472743             0.2999907196907727            0.0                           
7.249986487747249             0.30002188758663173           0.0                           
7.500022414420386             0.2999777720206892            0.0                           
7.749973306127832             0.30002342438899465           0.0                           
8.000023913163451             0.29996418666387387           0.0                           
8.249959540145737             0.3000248732825299            0.0                           
8.500025351493933             0.2999500815048601            0.0                           
8.749945268556784             0.3000263231965051            0.0                           
9.000026824750591             0.2999354628045573            0.0                           
9.249930460663766             0.30002787978558365           0.0                           
9.500028441309471             0.29992022395282997           0.0                           
9.749914971830085             0.3000296511089538            0.0                           
10.000030305983318            0.29990414737013665           0.0                           
4.98618161567612e-05          0.600010408743813             0.0                           
0.25001118406303413           0.600047210331079             0.0                           
0.5000457197194658            0.6000128967049467            0.0                           
0.7500138253283738            0.6000423549824133            0.0                           
1.000040463191231             0.6000157999840989            0.0                           
1.250016833720863             0.6000362275342929            0.0                           
1.5000338749770141            0.6000189616256009            0.0                           
1.750020042758969             0.6000286902195595            0.0                           
2.0000258583744306            0.6000222080681691            0.0                           
2.250023280698263             0.6000197265289768            0.0                           
2.5000164340873248            0.600025380977085             0.0                           
2.750026401017642             0.600009420119218             0.0                           
3.000005709497462             0.6000283729648289            0.0                           
3.2500293257778186            0.5999979241071285            0.0                           
3.499993869773261             0.6000311526968132            0.0                           
3.7500320147671076            0.599985471058432             0.0                           
3.999981139872598             0.6000336353420457            0.0                           
4.250034403930086             0.5999722527527999            0.0                           
4.499967710637324             0.6000358832685507            0.0                           
4.7500366036113615            0.5999584531255461            0.0                           
4.999953743033891             0.600038031691032             0.0                           
5.250038750829843             0.5999441627526356            0.0                           
5.499939289193869             0.6000402296453073            0.0                           
5.750041001831944             0.5999293555864851            0.0                           
5.999924283208335             0.6000426427493628            0.0                           
6.250043523280729             0.5999138857988414            0.0                           
[...]
POINT_DATA  4141
SCALARS Con float 1
LOOKUP_TABLE default
0.0003911014436437339
0.00042269722991988015
0.0004850181770873914
0.0005579119288645852
0.0006403502857374757
0.0007325842253897414
0.0008348078643676973
0.0009470505106642184
0.00106916005903603
0.0012007994970771887
0.0013414507341172833
0.001490424891840251
0.0016468779003147244
0.0018098293282084795
0.001978181039503824
0.0021507296604420523
0.0023261700777239664
0.0025030844731365872
0.0026802961537071043
0.0028598164556751767
0.00306339633742577
0.0032678455125257737
0.003450509034703161
0.0036243044631250995
0.003798440597774623
0.003972361313114719
0.004146273231336276
0.004320598365063023
0.004496081374463354
0.0046737286836761715
0.004854776361098511
0.005040662566229976
0.0052330043506369816
0.005433576110499778
0.005644288332233328
0.005867165439031448
0.0061043193963203285
0.006357882836828548
0.006629413071211729
0.0069116742853196885
0.007074298588560495
0.0003972408191053274
0.00042957977460429995
0.0004931646015509367
0.0005674262900552531
0.0006513392588544446
0.0007451287450499712
0.0008489628810083073
0.0009628434090060984
0.0010865904283421542
0.0012198401782474151
0.0013620504379065848
0.0015125129507187938
0.0016703723698151044
0.0018346512636704955
0.002004281508784341
0.0021781476567958938
0.002355157150777047
0.0025344693879068053
0.002715907882228117
0.0029042652016176627
0.0030953612732620584
0.0032835987506578384
0.0034665177910940988
0.0036464219593804457
0.003822813024203004
0.003997808395934131
0.004172148377305662
0.004346628800742508
0.0045221703788079085
0.004699885746478459
0.004881082142900515
0.00506725204281359
0.005260057856126239
0.005461314166701083
0.00567296834449487
0.005897079210061432
0.00613579079798267
0.006391266092744068
0.00666508044089622
0.006950113712904369
0.007114525406406365
0.0003937439860308111
0.0004260595020574645
0.0004897626199718221
0.0005643269366875475
0.0006487042757136525
0.0007431116037663458
0.0008477051188647273
0.0009624735928428955
0.0010872239008216098
0.0012215800797054884
0.001364990659272612
0.00151674435652791
0.0016759949346151486
0.001841797254562087
0.002013160217520979
0.002189128548488253
0.0023689363082448956
0.0025521897874549015
0.0027396477763741646
0.0029261908401079983
0.0031042930481041116
0.003282359778890404
0.0034668560636687547
0.003649231274604719
0.0038282355164052737
0.0040044705884733035
0.004179128738014668
0.004353254036202795
0.00452795232663472
0.004704451663414796
0.004884138019516325
0.005068563269184627
0.005259440708431774
0.005458633645543391
0.005668139900434324
0.0058900730097982265
0.006126637690425605
0.006380063744767259
0.006652006396685411
0.006935370523712551
0.00709886691948365
0.00038767669961909724
0.00042002531657860294
0.0004839516752113113
0.0005590154144416645
0.0006441634062462976
0.0007395952786813819
0.0008454470628283522
0.000961684914820729
0.0010880919056305408
0.0012242683657819543
0.001369640862917515
0.0015234801210028282
0.0016849287398901128
0.0018530400841412743
0.002026829433817252
0.0022053377421856904
0.0023876675258960355
0.0025729731279880274
0.0027589808466080778
0.002942662989126186
0.0031238201936104634
0.0033035352660264155
0.0034832967794599518
0.0036636517394247094
0.0038420512513000606
0.004017979555030392
0.004191918687356277
0.00436479309525042
0.0045377142672584385
0.004711961687542652
0.004888981637583719
0.005070388629268865
0.005257961097022664
0.005453632244893645
0.005659476975015795
0.005877695226216926
0.006110589053572782
0.006360497964055147
0.006629198245381821
0.006909788934569017
0.007071932603680895
0.00037910193574793553
0.0004114990772837153
0.0004757558822316275
0.0005515381068666381
0.0006377825415165047
0.0007346648570261466
0.0008422914750904292
0.0009605951631293025
0.0010893227526539114
0.0012280362313553067
0.0013761221671772224
0.0015328094259272106
0.001697194982920555
0.0018682762818008321
0.0020449853267713314
0.002226206371778163
0.002410750606269978
0.002597089523218654
0.002783442527887815
0.0029683349631791315
0.0031509527089507564
0.0033317017131323347
0.0035112101624774177
0.0036893191079629757
0.003865691646663798
0.004039776655017478
0.004211721989319462
0.004382194332200401
0.004552208513091606
0.004723027566840143
0.004896125798917264
0.005073170467171423
0.005256009740134023
0.005446661089210185
0.005647298344928458
0.005860236145935955
0.006087908464169599
0.0063328054460923865
0.00659687977408865
0.0068735080406685115
0.007033707470821801
0.000367946484576027
0.00040041970409315444
0.00046512617998372476
0.0005418591816816849
0.0006295400882275551
0.0007283120851287089
0.0008382421615882545
0.0009592183013031807
0.0010909378059876598
0.0012329084009743787
0.0013844569470851408
0.0015447452746704398
0.0017127919800719248
0.0018874971879041514
0.0020676632884820707
0.002252001644124786
0.0024390987221721305
0.0026274374145253926
0.0028155138962926546
0.0030020622823346537
0.003186366242848238
0.0033681854750305332
0.003547525720463413
0.0037243854068539375
0.0038985757153365353
0.004070037201391331
0.00423895095810911
0.004405899776132434
0.004571824458438978
0.004737963746362878
0.00490580897827125
0.005077076401665169
0.005253688442734629
0.00543775904578928
0.005631580055788138
0.005837606554880788
0.0060584370990594
0.0062967532609431625
0.006554735905847184
0.006826121619153399
0.006983732062773369
0.0003541390790094702
0.0003867222301855789
0.0004520120975461149
0.000529944060149752
0.0006194175999560113
0.0007205344659975481
0.0008333121799127338
0.0009575826898106277
0.0010929808168736244
0.0012389447536246
0.0013947234465434902
0.001559390266179031
0.0017318617830963995
0.001910919110035999
0.002095228362762029
0.002283356237831011
0.002473797182307885
0.0026650279209599983
0.002855614039013476
0.0030443588103896352
0.003230396794311652
0.0034132122141511956
0.00359253678055889
0.0037682228686978783
0.003940222545312116
0.004108611232899552
0.004273707060630435
0.004436125296607409
0.0045968060202540295
0.004756994514098491
0.00491821298192281
0.005082235460144734
0.005251068493734787
0.005426935934321484
0.005612265895280189
0.005809677792548698
0.006021965254542814
0.006252039554761581
0.0065023575824169014
0.006767100737186385
0.006921409600513385
0.00033762026203237937
0.00037035336268201297
0.0004363732848195596
0.0005157676003408017
0.000607405923117668
0.0007113392449384419
0.0008275259676479695
0.000955731673013299
0.0010955171301840478
0.0012462376582311854
0.0014070489308249776
0.0015769189967693197
0.001754645980036281
0.0019388804969711552
0.0021281519832460146
0.0023209020292074846
0.0025155300010499078
0.002710460047173349
0.0029042292058339184
0.003095577021918627
0.00328351341986343
0.0034673323092895307
0.00364658208340705
0.003821023722463775
0.003990604724114483
0.004155480793866463
0.004316050419487081
0.004472997212817071
0.004627307266750295
0.004780269158069715
0.0049334601573687905
0.005088729255973099
0.00524818168155215
0.0054141662461097825
0.005589264964696862
0.00577628344016174
0.005978237925319345
0.006198304115807296
0.006439260564166099
0.0066958242557010285
0.0068460377553148195
0.000318360340303384
0.0003512867208975773
0.00041819187127877227
0.0004993229037122063
0.0005935103280244334
0.0007007450106802736
0.0008209175465140767
0.0009537185053265215
0.0010986251985899021
0.0012548992052717927
0.0014215903054834236
0.0015975472333018914
0.0017814356386810404
0.001971763472216928
0.0021669145968287776
0.002365192142040978
0.002564874091621887
0.002764281352556483
0.0029618533459534213
0.00315622032536648
0.0033462565887258534
0.0035311067202439426
0.0037101860860790374
0.0038831689627092767
0.0040499823187030255
0.004210810372329851
0.004366112131843653
0.004516638352821431
0.004663443173411549
0.004807884873174102
0.004951619229837011
0.005096589155711508
0.005245014514383358
0.0053993840066617425
0.005562449435135551
0.00573722134296537
0.0059269621473182505
0.0061351425680181895
0.00636490552938396
0.006611597694877575
0.006756827690591113
0.00029638044018021065
0.00032954159768162965
0.00039748660899978935
0.00048063059650054396
0.0005777547972379723
0.0006887810352515537
0.000813525118946601
0.0009515964822342707
0.0011023824092297834
0.0012650425820749194
0.0014385103725599003
0.0016215021005009135
0.0018125354892358308
0.0020099582705438972
0.0022119876541788646
0.0024167611118178114
0.00262239794243551
0.0028270690628197444
0.0030290694863067237
0.0032268851533681126
0.003419245992805558
0.0036051600058536696
0.0037839294625034705
0.003955155484201777
0.004118738469796147
0.004274880562410075
0.0044240903034562
0.00456718795184043
0.00470530774898533
0.004839896151022259
0.00497270648380621
0.005105792485385626
0.005241502907054335
0.005382478840883938
0.005531654176612171
0.005692258418894226
0.005867818163726325
0.0060621239685265315
0.006278720761053152
0.006513681021253128
0.006652934463769031
0.0002717775756423911
0.0003052047605621395
0.0003743286734405694
0.0004597481670976384
0.0005601848025750338
0.0006754836479796441
0.0008053814845992898
0.0009494040569591542
0.0011068457228679102
0.0012767591460356778
0.0014579524470098616
0.0016489959875948712
0.0018482407954741819
0.0020538499808149336
0.002263843612289897
0.0024761563802827807
0.002688705866380749
0.0028994673864438485
0.0031065495497012486
0.003308263776890977
0.0035031815605793123
0.0036901758609945287
0.0038684464724481884
0.004037532311987503
0.004197315245608574
0.00434801928569966
0.004490207774425398
0.004624779037164408
0.00475296081575691
0.004876303635452489
0.004996674302775837
0.005116251099718271
0.005237522387724381
0.005363289732323265
0.005496675832197124
0.005641136474911998
0.005800472839413713
0.005978812075729516
0.00618013123166998
0.006401324737131283
0.006533496734161416
0.00024475343285383606
0.0002784550781248229
0.00034885852044233963
0.0004367785860833778
0.0005408676578385205
0.0006608886838799256
0.0007964993365322157
0.0009471441554535089
0.0011120265552967846
0.0012900907846762843
0.0014800125434098323
0.0016802015604136437
0.0018888190203823628
0.0021038115918384464
0.0023229622587014214
0.002543956392345123
0.0027644595619015096
0.0029822018193153945
0.0031950619252770376
0.0034011447330886957
0.003598845895988917
0.0037869002581036003
0.003964412967249971
0.004130874990210418
0.00428616619063969
0.004430549775894605
0.004564661436932298
0.004689495855400136
0.004806392718036813
0.0049170241091599865
0.005023385087290763
0.005127789284884822
0.005232870902655193
0.005341594039298339
0.005457269411297071
0.005583577520439397
0.005724594570373412
0.005884790413757928
0.006068593966693052
0.0062738150250738495
0.0063976870930269585
0.00021564611550855086
0.00024959002532192663
0.0003213027610389736
0.00041187703909063665
0.0005198892214711976
0.0006450187325181844
0.0007868501865014782
0.0009447564528522076
0.0011178586284688245
0.0013049960965483478
0.0015047070727677437
0.0017152244346455984
0.001934490894737571
0.002160195829462759
0.0023898337950342408
0.0026207822263666644
0.002850393379287239
0.0030760936206947827
0.0032954820749098164
0.0035064207232870254
0.0037071093440905942
0.0038961410465701896
0.004072536878654545
0.004235760742532505
0.004385717786528512
0.004522740604263675
0.004647567871004753
0.004761319707973728
0.004865473689911683
0.004961844645890058
0.005052571046848453
0.005140110044025561
0.005227242712517913
0.005317090257858779
0.005413141098618179
0.005519287664103996
0.00563986912129877
0.005779690717114753
0.0059436395524695065
0.00613052802605357
0.006244773230216117
0.00018496287358976145
0.00021905219978526937
0.0002919892463403954
0.0003852541452364041
0.0004973454764530154
0.0006278638923696402
0.0007763356499063811
0.0009420812583072252
0.0011241573001174068
0.0013213086947378994
0.00153193409245711
0.001754071340072113
0.0019854088181973455
0.002223325791799229
0.0024649616481656153
0.0027073103591424915
0.002947333236935971
0.003182080604410775
0.0034088118610071266
0.0036251037616962163
0.0038289386629988655
0.00401876739668889
0.004193544992119761
0.0043527407458799116
0.0044963268184238245
0.004624751125815357
0.004738900969623607
0.004840063666216625
0.004929889655858926
0.005010362745396128
0.005083780890137959
0.005152750165210105
0.005220193419701608
0.005289374401112745
0.00536393716614249
0.005447959501439352
0.005546016153247425
0.005663224389072711
0.0058049192762385906
0.005970992898997824
0.00607418992107307
0.00015341018607600517
0.0001874525426672265
0.00026135772695092815
0.0003571736423056158
0.00047332773331254616
0.0006093551782830748
0.0007647503642437117
0.0009388141741503283
0.0011305693527453268
0.0013386865610334497
0.0015614271670188822
0.0017966132946157028
0.0020416332686911966
0.002293486830553247
0.002548869861034701
0.00280429327165756
0.003056226234702153
0.0033012504967009746
0.0035362111456097908
0.0037583500138828716
0.003965410739505323
0.004155708824455509
0.0043281649353528835
0.004482304207406587
0.0046182278320885594
0.004736565386442747
0.004838416925474275
0.004925293596884723
0.004999064096575254
0.005061912860985883
0.005116314142105276
0.0051650246778957845
0.005211096458905172
0.005257910181913818
0.005309229242327684
0.005369273185108409
0.005442806688522872
0.0055352163915820375
0.005652256939835508
0.005794962464209352
0.005885620406431777
0.00012191538348414207
0.00015558510880715564
0.00022996223093927167
0.00032794281181454724
0.0004479011155126288
0.0005893311600986572
0.0007517371095472778
0.0009344516555755398
0.001136513202885582
0.0013565524653684107
0.0015927022292797819
0.001842544990500982
0.0021031097101468234
0.002370923966598126
0.0026421211750627793
0.0029125952871170142
0.0031781886011038258
0.0034348934573915782
0.003679046701206668
0.003907497342129717
0.004117732471846743
0.004307953183764901
0.004477099500576714
0.004624829756534204
0.004751464667401637
0.004857908665953794
0.0049455615907491365
0.005016232425362837
0.005072064601056698
0.005115479779357557
0.005149144582654782
0.005175962623982917
0.0051990928742768495
0.005221994366463439
0.005248496992507457
0.005282898087795518
0.005330082588311514
0.005395643163128949
0.0054857035423869415
0.005602489058264068
0.0056790864171342515
9.162953306877735e-05
0.00012442538682428338
0.0001984614613082867
0.0002978946566711031
0.0004210791583910836
0.0005675008295197456
0.0007367356439155492
0.0009282290687518497
0.001141111419133384
0.0013740275365335597
0.0016249997972997564
0.0018913434554033723
0.0021696504196033997
0.0024558510001628495
0.0027453537849971197
0.0030332529078286484
0.0033145814485922827
0.0035845822553052867
0.003838964719200576
0.004074119043291007
0.004287267274046965
0.004476541220370213
0.004640988556921742
0.004780517819124046
0.004895799169921087
0.004988140220844292
0.005059355461482289
0.005111644982762087
0.005147493961463221
0.005169600534828731
0.005180835864900371
0.005184237780075922
0.005183037585694564
0.005180718974431114
0.005181108054412724
0.005188494255079772
0.005207784034769437
0.005244673651657096
0.005305598666743305
0.0053940008431282915
0.00545503424310305
6.390437415601974e-05
9.510327634399844e-05
0.00016759042909071358
0.00026737102810283405
0.00039280207017549403
0.0005434029208922969
0.0007189278946758326
0.0009190562951415171
0.0011431213722710313
0.001389863594148697
0.0016572277936890982
0.0019422314084792517
0.0022409277113803272
0.0025484797702480387
0.002859347379074628
0.0031675718260680856
0.003467126760362894
0.003752290896473818
0.004017994516521797
0.004260097076959334
0.004475566954839242
0.004662552418707765
0.0048203505456014695
0.004949294640282781
0.005050588219362816
0.005126115103853304
0.005178251784053786
0.005209702120942431
0.005223367513898013
0.005222259372002959
0.005209455877933657
0.00518810192818075
0.005161449511589355
0.005132935546154873
0.005106294675443715
0.005085706186717022
0.005075974888390268
0.005082751261915837
0.005112623027209679
0.005170381251248824
0.005214448538674602
4.019568584916188e-05
6.883339732546761e-05
0.0001381506272276632
0.00023672005112913705
0.00036289870170533
0.0005163597090350057
0.0006971897542023585
0.0009054649124764568
0.0011408779122655578
0.0014023859645327635
0.0016879144422065882
0.0019941537254002163
0.002316487595698349
0.0026490806797959364
0.002985132310127858
0.003317276506421507
0.0036380794844337997
0.0039405650012803725
0.0042186916079901835
0.004467716280440322
0.004684403747689636
0.004867071566456535
0.005015489832000314
0.005130673848498853
0.005214616699395646
0.005270006423194393
0.005299963780482766
0.0053078249420533625
0.0052969819139664955
0.005270784445953262
0.005232501060196115
0.005185333628186364
0.005132479368601022
0.005077234443460614
0.005023135542395154
0.004974136705364999
0.004934822175375427
0.004910636423176776
0.004908083496216846
0.004932998779562085
0.00495876888237506
2.2146235454341484e-05
4.6921550510080935e-05
0.0001109918627276377
0.00020622298793220297
0.0003310713292023223
0.00048551901618857924
0.0006701580701578341
0.0008856813208558623
0.0011323612708317298
0.0014095555737366336
0.0017152733236646496
0.00204586117833015
0.002395869995313546
0.002758152242037318
0.0031242097937529247
0.0034847666756443606
0.003830491126935958
0.004152754215909683
0.0044443007150109844
0.004699729188346078
0.004915723873009892
0.005091035777671004
0.005226256953677041
0.005323459430313844
0.005385775977377846
0.005416989663931104
0.005421179134865102
0.0054024458358292345
0.005364731397518531
0.005311721286514109
0.005246824151022935
0.005173214333331803
0.005093926244985362
0.00501199217662727
0.004930618938863273
0.0048534023027434064
0.004784578314934551
0.004729318765009154
0.0046938822124631555
0.004684967828037665
0.004691159059714543
0.00030501269249353535
0.0004597816757499539
0.0008708541648716579
0.0017528672095257502
0.002111109494546509
0.002888158298481414
0.003287360131548526
0.004049703672184424
0.004390719594866869
0.004950740566876648
0.005160911896485541
0.005323189343863413
0.00543947726884479
0.005513337408030774
0.005549376349813177
0.005552690729749632
0.005044076557740782
0.004937908074484516
0.0045500675469229744
0.004484509771705928
0.004431652791477401
1.131043803459642e-05
3.262265298345961e-05
9.111821609167293e-05
0.00018226076378371906
0.0006478880894489809
0.0011297194734224548
0.001424358009332094
0.0024925048093602463
0.003678418515472497
0.0046930089532585305
0.0055284241643953555
0.005481456523016511
0.005416222026724668
0.0053366386727955566
0.0052461267407956915
0.005147694787125135
0.004831940659659999
0.004729291469987396
0.0046337399126358874
0.004444175812376317
7.19421727214856e-06
2.4465976242475094e-05
7.661989936534926e-05
0.00016242455508519717
0.0002808163734874497
0.00043254629153569474
0.0006194647603359798
0.0008437781188622195
0.0011072270597078005
0.0014102725576639326
0.0017513343130516786
0.0021261905084676205
0.002527668146982728
0.0029457465801450435
0.003368139395167212
0.0037813178388264347
0.004171820459630744
0.004527603195000623
0.004839165084986755
0.005100247098070048
0.005308022207914247
0.005462820982127584
0.005567528135220503
0.00562681905410627
0.00564639034800809
0.00563229316322157
0.005590426879515922
0.005526206646723081
0.005444389415395727
0.0053490288892292254
0.005243526744775811
0.005130752148244575
0.005013208583210556
0.00489323604307157
0.0047732444748038675
0.004655980617927236
0.004544839612067005
0.004444221622969366
0.004359972489748236
0.004299420080677854
0.004275286205314272
5.8086822633622215e-06
1.9275269712097326e-05
6.539548364988757e-05
0.00014598060583405624
0.000260072289651874
0.00040873231211820853
0.0005944126415977583
0.0008200678503642168
0.0010882202449442023
0.0013999929725374645
0.001754180940877964
0.0021464825338562525
0.002569064278689596
0.0030106301435388213
0.0034570999851823783
0.0038928659409914767
0.004302428755578513
0.004672085214661529
0.004991308717106389
0.005253556811746426
0.005456411907549262
0.005601137694945505
0.005691849908827154
0.005734532167538736
0.005736092317384376
0.005703585285444636
0.005643656854592817