# vtk DataFile Version 2.0
time_10.vtk
ASCII
DATASET UNSTRUCTURED_GRID
POINTS   4141  float 
6.101608550589314e-05         -7.032165676788728e-18        0.0                           
0.25000000000000094           5.826214487514055e-05         0.0                           
0.5000566561801508            -3.9783680879196485e-19       0.0                           
0.75                          5.292313391218375e-05         0.0                           
1.0000507751543786            5.912905582202868e-20         0.0                           
1.25                          4.587680556684791e-05         0.0                           
1.5000431161365417            -1.2898309319870275e-15       0.0                           
1.75                          3.696027883234906e-05         0.0                           
2.0000335661956665            1.013961107805153e-16         0.0                           
2.25                          2.6162847055271588e-05        0.0                           
2.500022166512542             1.501985780574644e-17         0.0                           
2.75                          1.3637903194219678e-05        0.0                           
3.0000091452371955            1.3134088188847196e-17        0.0                           
3.25                          -3.089467405853356e-17        0.0                           
3.4999945444607294            -6.751566500475104e-17        0.0                           
3.75                          -1.6345371894678972e-05       0.0                           
3.9999780986455176            3.02054628932545e-16          0.0                           
4.25                          -3.329588402155863e-05        0.0                           
4.4999608687328125            -5.624420688003483e-17        0.0                           
4.750000000000001             -5.106405136324982e-05        0.0                           
4.999942842107661             2.4487042526104598e-17        0.0                           
5.25                          -6.960179656658776e-05        0.0                           
5.4999240427289               7.648647833704256e-17         0.0                           
5.75                          -8.896203894913785e-05        0.0                           
5.999904372606374             1.163252302991373e-16         0.0                           
6.25                          -0.00010933694683224715       0.0                           
6.49988359306351              -4.7002817737124967e-17       0.0                           
6.75                          6.079978247442678e-05         0.0                           
7.000059496971303             3.8342021076602645e-06        0.0                           
7.25000422922315              5.644637809485819e-05         0.0                           
7.500054671841982             5.08059901979308e-06          0.0                           
7.7500055327560515            5.0567815285125115e-05        0.0                           
8.000048220647539             6.477816896378704e-06         0.0                           
8.250006965446934             4.2905387723565165e-05        0.0                           
8.500039930691836             7.957396410322345e-06         0.0                           
8.75000845637104              3.3344836941279225e-05        0.0                           
9.000029738310557             9.447504221837634e-06         0.0                           
9.250009934819616             2.1923065736784875e-05        0.0                           
9.500017729453686             1.0881284315781287e-05        0.0                           
9.750011335508455             8.81466983993343e-06          0.0                           
10.000004091306229            1.2194751281834092e-05        0.0                           
1.2708915996694017e-05        0.29999405874328006           0.0                           
0.24998876934469608           0.3000135935843911            0.0                           
0.5000139701942266            0.2999777949955732            0.0                           
0.7499721479863921            0.3000147031391223            0.0                           
1.0000150598295552            0.2999605665549791            0.0                           
1.249954640946719             0.30001575865119967           0.0                           
1.5000161043010596            0.29994253381628305           0.0                           
1.7499363536873507            0.30001679911172013           0.0                           
2.0000171532529656            0.29992373147321777           0.0                           
2.249917280546635             0.3000178881586323            0.0                           
2.5000182742336303            0.2999040633406064            0.0                           
2.74989727747256              0.30001909637386              0.0                           
3.000019537096109             0.29988329012308973           0.0                           
3.2498760600374377            0.3000204879138628            0.0                           
3.500006909519857             0.300058855142326             0.0                           
3.750057415333829             0.3000084462109622            0.0                           
4.000009279988141             0.30005404644847644           0.0                           
4.250052092735775             0.3000110586564416            0.0                           
4.500011994047741             0.30004759738700254           0.0                           
4.750045041378527             0.30001393090186484           0.0                           
5.000014921530601             0.30003929088424286           0.0                           
5.2500360933253045            0.3000169202679368            0.0                           
5.500017918028799             0.30002905937452956           0.0                           
5.750025230156591             0.3000198864219852            0.0                           
6.000020848632748             0.30001697382853476           0.0                           
6.250012557646549             0.3000227138314642            0.0                           
6.500023617530795             0.30000315533015726           0.0                           
6.749998201821738             0.3000254341816077            0.0                           
7.000026317039552             0.29998783534987655           0.0                           
7.249982432395091             0.30002792735924405           0.0                           
7.50002867887436              0.29997125390647134           0.0                           
7.749965505399941             0.3000301254861687            0.0                           
8.000030828377515             0.29995372933890535           0.0                           
8.249947711147868             0.30003221275188696           0.0                           
8.500032903142072             0.2999354247637266            0.0                           
8.749929155383226             0.3000343051157892            0.0                           
9.00003502727288              0.2999163473681796            0.0                           
9.249909796310321             0.3000365408536675            0.0                           
9.500037342811083             0.2998963551058444            0.0                           
9.749889441707243             0.3000390615104107            0.0                           
10.0000399868326              0.29987515963417843           0.0                           
5.906745388227375e-05         0.6000103284206599            0.0                           
0.2500114485713663            0.6000563559586226            0.0                           
0.500054766843877             0.6000138929846965            0.0                           
0.750015206010263             0.6000510543322572            0.0                           
1.0000489087845332            0.6000179790702238            0.0                           
1.2500194235844455            0.600043997410558             0.0                           
1.5000412206303868            0.6000223878778818            0.0                           
1.7500238912932116            0.600035011816876             0.0                           
2.000031580033848             0.6000269012746393            0.0                           
2.25002839328518              0.6000240744032774            0.0                           
2.50002000940654              0.6000313200581435            0.0                           
2.7500327456982347            0.6000112817876607            0.0                           
3.000006630829132             0.6000355170124997            0.0                           
3.250036867390427             0.5999968128469215            0.0                           
3.499991675007645             0.6000394758146811            0.0                           
3.750040709423469             0.5999809793286316            0.0                           
3.9999754370321168            0.6000430285288175            0.0                           
4.25004413057164              0.5999640174384426            0.0                           
4.499958159939371             0.6000462585121054            0.0                           
4.750047297530545             0.5999461829603002            0.0                           
4.999940070843181             0.600049360190777             0.0                           
5.2500503988538565            0.5999276031859399            0.0                           
5.499921243266848             0.6000525308145823            0.0                           
5.750053640587034             0.5999082453005131            0.0                           
5.999901590924675             0.6000559884398872            0.0                           
6.250057241971874             0.5998879164008124            0.0                           
[...]
POINT_DATA  4141
SCALARS Con float 1
LOOKUP_TABLE default
0.00038559775591840236
0.00043419177348643295
0.0005279206677081357
0.0006391490837189147
0.0007668001808564498
0.0009115353476748187
0.0010738899543979593
0.0012541145360659776
0.001452144862159986
0.0016675919705870848
0.0018997438346972442
0.002147577020157194
0.002409775885897623
0.002684754924914499
0.0029706766031275846
0.0032654517262651066
0.003566711004692241
0.003871787226376014
0.004178370162856403
0.004493591951157048
0.004873027908881859
0.005255209989501807
0.0055816135908183335
0.005892215718009794
0.0062062650461509996
0.006522346197094632
0.006840460513617421
0.007161055616712696
0.00748521977319152
0.007814547720551025
0.008151070083853787
0.008497196369463209
0.008855668768975243
0.009229520185837111
0.009622033293357772
0.010036698234323517
0.010477163267253009
0.010947115229254714
0.011449220631715488
0.011970310234690404
0.012272011886859028
0.00039101324037387944
0.00044081568400910614
0.0005365024858247729
0.0006499091464265067
0.0007799596728550902
0.0009272761564938193
0.001092352152804165
0.0012753930337896036
0.001476288652830257
0.0016946060001346414
0.0019295942424748308
0.0021802012399843376
0.0024451008839725457
0.002722731073820515
0.003011344798594601
0.003309089405810792
0.003614163269330348
0.003925328663086558
0.004243238409015652
0.004578773299759547
0.004923852777387749
0.005266174479733336
0.005598760464353266
0.005924367310288295
0.006244512213757111
0.006563716666861437
0.006883366544365513
0.007204783342651689
0.007529462450357093
0.007859234315009515
0.008196281263685328
0.008543124462009576
0.008902596973951411
0.009277811033590553
0.00967212158777301
0.010089086012891694
0.010532415235530689
0.011005855167704049
0.01151210758320872
0.012038204596216054
0.012343166102063674
0.0003865862907185138
0.00043628060298479295
0.0005320301104835385
0.0006457668335479446
0.0007763963178946658
0.0009245362197025578
0.0010906703392458954
0.0012749931651761643
0.0014773843264553202
0.0016974040705599572
0.0019343027574625247
0.0021870451905744476
0.0024543523278650636
0.0027347663961000317
0.0030267545029809247
0.0033288830690616795
0.0036401580092223396
0.003960489163206285
0.004292134423001334
0.004624683713495029
0.004937720793494074
0.005252547789277425
0.005587873903843501
0.005921356944925888
0.00624878434556595
0.00657192753283046
0.006893290272985577
0.007214859007635857
0.0075385940317625215
0.007866609365992263
0.008201273596241815
0.008545242163837223
0.008901457787341098
0.009273133398869772
0.009663724964602226
0.010076896840794543
0.010516476231331636
0.01098633429569906
0.01148931578336349
0.012012480878077119
0.012315801864082584
0.0003788991955209604
0.0004285365010281517
0.0005244160134089868
0.0006386876859056257
0.0007702674364360285
0.0009197605402020767
0.0010876334889441304
0.00127406018811604
0.0014788988785774345
0.0017016902513946207
0.001941670488772724
0.0021978005562720932
0.0024688144410585037
0.002753290564989848
0.0030497504359295003
0.0033567845149104756
0.003673117271891984
0.003997494017599054
0.004325392971170374
0.00464945242723026
0.004969802751853704
0.005289598715046805
0.005612846031894219
0.0059413211596552155
0.006268280758148593
0.006591895715315045
0.006912954402478372
0.007233117865518309
0.007554351717221813
0.007878882515016398
0.008209209432506274
0.008548119699342828
0.008898689228351367
0.009264270515182544
0.009648470512070271
0.010055120004878529
0.010488230522396233
0.010951876496404963
0.011449120736635962
0.011967360848176295
0.012268267045220944
0.00036806426728013214
0.0004176180396863139
0.0005136967688703345
0.0006287337317771122
0.0007616564391300379
0.0009130525228331342
0.0010833614880825487
0.0012727245319465593
0.0014809631232783195
0.0017075782572931603
0.001951763883942472
0.0022124349198329486
0.00248826990834021
0.0027777653613141056
0.0030792906611097717
0.0033911015594239274
0.0037112377116982932
0.004036882218463707
0.004364354159945272
0.004690715613421535
0.005014396026812609
0.005336845045095593
0.0056600012131548414
0.005983551037482722
0.0063065326121365005
0.006627175626135771
0.0069452815685546905
0.007261833151404232
0.0075785179585294874
0.007897490160660292
0.008221285703947064
0.008552786762373414
0.008895201397359737
0.009252043845900556
0.009627110905724323
0.010024452058322605
0.010448327539693226
0.010903091562675805
0.011392128108223544
0.0119033357038858
0.012200792106753778
0.0003540220668094994
0.00040348066617946907
0.0004998341223134558
0.0006158747302236951
0.0007505409700323655
0.0009043949320917966
0.0010778386599267567
0.0012709672542606388
0.001483548153441668
0.0017150196215925874
0.001964501520816867
0.002230817638466762
0.0025125271773623757
0.0028079587150700376
0.0031152305662831047
0.00343223249314742
0.003756512185015816
0.004085264234582817
0.00441562329357633
0.004745141930827955
0.005072624113890926
0.005397903470187308
0.005721268857617461
0.006042815772466747
0.006361934259458675
0.006678119914839097
0.006991266732515162
0.0073020967925041015
0.007612070734113024
0.007923238169100837
0.008238132550962859
0.00855970991718605
0.008891309956370594
0.009236626463188744
0.009599679644219036
0.009984785571455502
0.010396515404927302
0.010839581613214877
0.01131779061699422
0.011819689810878128
0.01211254768152832
0.00033673554640753424
0.0003860894264199928
0.0004828004455581927
0.0006000907428799568
0.0007369079854789738
0.0008937800718015948
0.0010710609477722942
0.0012687867241444014
0.0014866545357119514
0.0017240187131613025
0.001979897265558477
0.0022529875828230708
0.00254168879461089
0.002844125237782626
0.003158163319750247
0.0034814140077157863
0.003811258143747874
0.004144949420641192
0.004479836282960279
0.004813720325492552
0.0051450612083306525
0.005473021270533455
0.005797195990041927
0.006117280168562609
0.006433006794927126
0.006744197517618928
0.007051073501721149
0.00735440885405605
0.007655616289542282
0.007956711510216803
0.008260250955613238
0.008569276836432336
0.008887275052853054
0.00921814192099658
0.00956615489821206
0.009935942759503559
0.010332447406386905
0.010760814972330751
0.011225365950547846
0.011715449766373811
0.012002438341208333
0.0003162049237551747
0.00036544425089103964
0.00046259611790193356
0.0005813845258986072
0.0007207626580517415
0.0008812151935403967
0.001063038372408463
0.0012661986585317958
0.0014903100303516508
0.0017346266751806678
0.0019980445985093337
0.002279111797300691
0.0025760459831873075
0.0028867581613723453
0.003208881356353055
0.003539813147524774
0.0038767890669721733
0.004217008793456334
0.004557823311935067
0.004896927540577147
0.005232511283602221
0.005563276306495591
0.005888352871158272
0.0062071872312230245
0.006519470892028494
0.0068251966379813045
0.007124752503368016
0.007419041912909201
0.007709543043307241
0.00799832297444513
0.008288014436698205
0.008581781101206607
0.008883283814550554
0.009196651162071003
0.009526453361255785
0.009877676456558692
0.010255689369105522
0.01066614198434596
0.011113958712083474
0.011589460585489044
0.011869159258735192
0.0002924957660331978
0.0003416032210922364
0.0004392680787163956
0.0005597941091053826
0.0007021349301939264
0.0008667231458431662
0.0010537898382395373
0.0012632249597063615
0.0014945516145485665
0.0017469139778843656
0.002019073497078105
0.0023094144458340555
0.002615960001667838
0.002936400210961034
0.003268135185199316
0.003608339589545075
0.003954056694091704
0.0043023262746104945
0.0046503350641219346
0.004995566601210216
0.005335909707753797
0.005669708148365871
0.005995752019889496
0.006313244186576899
0.006621785887177318
0.006921393985310019
0.007212555769403374
0.007496285887720628
0.007774171416711899
0.008048388610007074
0.008321697992820763
0.008597426122005324
0.008879443532199237
0.009172143801111228
0.009480424940840226
0.009809671495799886
0.010165730440377531
0.010554820298288569
0.010982557065771257
0.011440412209644025
0.011711223019770407
0.0002657702584335675
0.0003147100920082893
0.0004129299200836128
0.0005354051175105936
0.0006810837725239492
0.00085033846929167
0.0010433310826708302
0.0012598734809905019
0.0014993966126069262
0.0017609316003497253
0.002043099089051123
0.002344109663511115
0.0026617784932010603
0.002993557485286716
0.0033365884837535265
0.0036877810786223454
0.004043916771141523
0.004401776003435469
0.004758277358991748
0.005110609882445269
0.005456340099157528
0.005793480678953295
0.006120523368806428
0.006436450573388646
0.006740742936468479
0.007033397207988413
0.00731495332645782
0.007586525434412917
0.00784982535942116
0.00810717401915206
0.008361500044552954
0.008616330546622626
0.008875778993054232
0.009144534398657169
0.009427853286249175
0.009731553437264794
0.010062002994372099
0.01042604586941998
0.010830070853622802
0.011266885710985285
0.011527009531043922
0.00023632238359495367
0.0002850244740877885
0.0003837829371904765
0.0005083619766756927
0.0006576982210324859
0.0008320982161523278
0.001031655547547407
0.0012561094557355173
0.001504805340403213
0.0017766656769891565
0.002070169582669976
0.002383345798251915
0.0027137840337760483
0.003058669075373064
0.0034148409543464774
0.0037788826150516285
0.004147233285018741
0.004516321364350096
0.0048827056638663146
0.005243210909270124
0.005595043716676252
0.005935880657022275
0.006263927393711483
0.0065779549141719825
0.00687732229082321
0.007161993369694903
0.007432551584206
0.007690211804277798
0.007936827679616964
0.008174892734732942
0.008407536423717258
0.008638517922980725
0.008872221306621795
0.009113654897524345
0.00936845598292897
0.009642899883906502
0.009943907001286686
0.01027899076096172
0.01065538270573892
0.011067415891117918
0.01131483446551623
0.00020461570382279993
0.00025295352863132875
0.0003521367648244855
0.00047887669253586447
0.0006320940031231183
0.0008120265425290317
0.0010187075508561942
0.0012518184361575307
0.001510635638779622
0.0017939862368594052
0.002100212991828887
0.0024271558357861277
0.0027721566678862025
0.0031320930277472236
0.0035034439152279084
0.003882387878430047
0.004264929518664479
0.004647046304707323
0.005024844017303761
0.0053947074178380084
0.005753433800989968
0.006098340854924761
0.00642734558603042
0.006739016256376681
0.0070326023339319955
0.007308048581214239
0.007565998268857119
0.007807789054106838
0.008035444144143915
0.008251661103048409
0.008459801173125158
0.008663882499271119
0.008868580330583988
0.009079236528323448
0.009301879078413596
0.00954325027261971
0.009810837032928786
0.01011284849156114
0.010457411850368933
0.01084057245206937
0.011073039400059022
0.00017132095709634514
0.00021908269251147338
0.0003184274193579433
0.00044723339996511306
0.0006044042963734262
0.0007901119066458678
0.0010043468547451867
0.0012467599861320751
0.0015165884121057173
0.0018125884498436128
0.002132979214521891
0.0024754066648888687
0.002836937483028943
0.003214090000345813
0.0036029059619161912
0.003999062442854457
0.004398018324488617
0.004795185081211605
0.005186108158904636
0.005566643960990682
0.005933118544757418
0.006282457780041205
0.006612283474899589
0.006920975107582038
0.007207700709970172
0.007472422916199697
0.007715887138197581
0.007939598601117629
0.0081457946420439
0.00833741785563239
0.008518095338152433
0.008692128413341164
0.008864496448758892
0.00904087693835892
0.00922768230822715
0.009432111636502824
0.009662210482165656
0.009926886069776125
0.010235190725851192
0.010585060274671512
0.010800104655657406
0.0001373491275654454
0.00018420135042385732
0.00028322963553308804
0.00041378639636679976
0.0005747631273295329
0.0007662760585344608
0.0009883041442708268
0.0012405115677786589
0.0015221431759622518
0.0018319245453868285
0.002167974344157203
0.0025277425976130466
0.0029079878522973433
0.003304802963276729
0.0037136944333324355
0.004129714125058582
0.0045476356917906
0.004962162226510105
0.005368147561190896
0.005760812128798112
0.006135935857664987
0.006490014576291424
0.006820372199083343
0.007125227049242765
0.007403716118417049
0.007655884919517862
0.00788265282590193
0.008085764435455507
0.008267737028066829
0.008431813168694206
0.00858192586998309
0.008722682370772257
0.008859370625206992
0.008997991000010483
0.009145313607366486
0.009308959208824814
0.009497495915861373
0.009720501748555169
0.009987953393997693
0.010299838508343668
0.010494785275782249
0.00010387245483436066
0.00014931725726250199
0.00024725908755519036
0.00037894918273469836
0.0005432807539508977
0.0007403353275259832
0.0009701284260785136
0.001232403536023194
0.0015264839968961589
0.00185112610377785
0.0022043863123520275
0.0025835221524785224
0.002984944751177784
0.003404236550327644
0.003836241123122046
0.004275223604103418
0.004715091305618625
0.005149655936866274
0.005572913313820925
0.005979314529367224
0.006364004671734774
0.006723010837653357
0.007053369102990866
0.007353188636402487
0.0076216587071724256
0.007859010054756416
0.008066445122936467
0.008246052793808663
0.008400722069980248
0.008534067381224301
0.00865037529934135
0.008754580050103817
0.008852272427466725
0.00894974478531174
0.009054072730847181
0.009173231858316382
0.009316241936875776
0.00949328755584782
0.009715234385685593
0.009984256911072258
0.010156268476265056
7.232276949123258e-05
0.00011565085285508485
0.00021135917284476223
0.0003431731024496866
0.0005100125052115221
0.0007119576455980728
0.0009491302303391177
0.0012214485530524536
0.001528418557299626
0.0018689188663081199
0.0022410036727269055
0.002641750270274541
0.0030671757733852245
0.0035122424464265754
0.003970962033973294
0.004436597834659048
0.004901949952494181
0.005359697444287319
0.005802762641856593
0.006224660331167676
0.006619797931226467
0.006983701495396832
0.007313154452635077
0.007606248505563363
0.00786235718922918
0.008082050224158413
0.008266970750699482
0.008419697867795574
0.008543614656830222
0.008642798128572127
0.008721943133687689
0.008786328212026363
0.008841827961318471
0.008894973972567116
0.008953064857715723
0.00902432507407097
0.009118108060163993
0.009245099300514594
0.009416974561139308
0.009638205289066686
0.009784351425767338
4.4351320296228765e-05
8.459776631690376e-05
0.0001764675748257277
0.00030691619849683015
0.000474927876447167
0.000680623336841786
0.0009243271674434147
0.0012062721759879811
0.0015262971112561423
0.0018835362769843958
0.002276133001618566
0.002701011305055846
0.0031537402404902787
0.003628519443037437
0.004118302918172653
0.0046150609412350194
0.00511016006015192
0.005594822574067908
0.006060613936796821
0.006499902558930306
0.006906242575727604
0.007274644605166676
0.0076017187080038755
0.007885693235574974
0.008126329220876678
0.00832476006351374
0.008483290139764047
0.008605184544202005
0.00869447689773164
0.008755815642703052
0.008794362044981616
0.008815747421826985
0.00882609249792188
0.008832089097989184
0.008841143310322513
0.008861579621750344
0.00890290862037162
0.008976132844846184
0.009093641586567197
0.009262267100601601
0.009379617053076167
2.1735826591289127e-05
5.7645653994355844e-05
0.0001435570192474035
0.0002706174905034268
0.0004378939722478477
0.000645595143797782
0.0008944012365525614
0.0011850573973285162
0.0015179447928223497
0.0018926439718062315
0.0023075250735749278
0.002759411429882866
0.003243365115530826
0.003752639066420178
0.004278825017276656
0.004812200892379304
0.005342250354409813
0.005858296461264627
0.006350170255923264
0.0068088291383667406
0.007226850811071288
0.007598754046501085
0.00792112910493731
0.008192591599864222
0.008413596626084149
0.008586162511568029
0.008713555373393345
0.008799979886213788
0.008850311060853053
0.00886989023521028
0.008864397855524597
0.008839807542585265
0.00880242054962532
0.008758977112689352
0.0087168404695197
0.00868425116063628
0.008670650033875446
0.008687076555973535
0.008746336716533945
0.008857884421713525
0.008943663221597507
6.181472006755524e-06
3.6237169122298596e-05
0.00011359891791126256
0.0002346951330633047
0.00039865171261011266
0.0006059013487405262
0.0008576881106212064
0.0011555291530255024
0.0015006332220557515
0.0018932970402400111
0.0023323266788045868
0.002814543326971494
0.0033344471766634434
0.0038841099698396194
0.004453348822322558
0.005030195088671118
0.005601621440576027
0.006154438057111971
0.006676232722056027
0.00715621940090134
0.0075858819696801635
0.00795934424683373
0.008273453037449842
0.00852760941352365
0.008723417153794221
0.00886422959502539
0.00895467264962542
0.009000205941717505
0.009006764301768937
0.008980502485862607
0.008927650753275297
0.008854478648859045
0.008767359337630967
0.008672924909281442
0.008578304876504076
0.008491441059892342
0.008421477323541567
0.008379188249244433
0.008377339137797988
0.008427428879403596
0.00847898972234933
0.0
2.165595225321228e-05
8.750328175189457e-05
0.00019945355210648132
0.0003568415406499625
0.0005604588995390041
0.0008123535320884128
0.0011151491939252846
0.0014712668697467607
0.0018821054115225728
0.0023472272540675404
0.0028636324438962605
0.003425228670869105
0.004022614839679821
0.004643273546953292
0.005272211125532855
0.005892997263718681
0.006489065562587868
0.007045068727882909
0.007548067382159026
0.007988372957915763
0.008359950543405761
0.008660383581733228
0.0088904824845598
0.009053662969083786
0.009155228809382574
0.009201673129004079
0.009200079269175
0.00915766614840135
0.009081493309072182
0.008978320402894622
0.00885460492356833
0.008716618980718524
0.008570668053197117
0.008423399971831634
0.008282198689935748
0.008155657727641374
0.008054141875991004
0.00799008949772646
0.007976648428941295
0.007991315586184976
0.0003215897308568533
0.0005207059080078805
0.0010796133454529103
0.002372744796859692
0.0029279027396359003
0.004188303644333279
0.0048666019466334556
0.006226523641344122
0.006866875539738126
0.007976829102582034
0.008420910303903373
0.00878204928654196
0.009059380463416847
0.009255949450981845
0.0093777132487409
0.009432489169956757
0.008645643946960513
0.008452270904385403
0.007732254546019345
0.007610920009346154
0.007517707154155786
5.962557187002407e-07
1.4835580136573046e-05
6.915304331242055e-05
0.00017152513080503527
0.0007720253268635606
0.0014474462470239046
0.0018783213416519618
0.0035368785624827035
0.00555289907636314
0.007455329596543682
0.009429006565657256
0.009376153338790357
0.009282453548725617
0.009155771452456914
0.00900321447452414
0.008831198794468866
0.008256989422861754
0.008066372024228434
0.007888225798938945
0.007538293975593522
5.279445778849541e-06
1.3770570946630318e-05
5.6995044709101376e-05
0.00014947659304232098
0.00029068465202270583
0.0004822925402902611
0.0007281868199581648
0.0010335094634038448
0.0014035022299875583
0.001842242618754718
0.002351302989545831
0.0029284591984893747
0.0035666501256896763
0.00425344082991119
0.0049712242572109416
0.005698285024686978
0.006410655022011759
0.0070844688052708864
0.007698368585090359
0.008235484282151968
0.00868464215178604
0.009040673575356591
0.00930391867084674
0.009479168397711445
0.009574341433587553
0.009599158870976298
0.009564002556053606
0.009479053396889358
0.009353733113303543
0.009196423799747756
0.009014416321063945
0.008814034484786112
0.008600889260592912
0.008380231343638175
0.008157385975822223
0.007938267203031306
0.007729987276229273
0.007541561295222852
0.007384754809418608
0.0072741103537899135
0.007231696366167125
1.2453736829185925e-05
1.4778337121203078e-05
4.7975252122723714e-05
0.00013122911952805297
0.0002640446959731516
0.00044839497946475194
0.0006889703809131172
0.0009920688472960823
0.0013643084005296455
0.0018111756443425918
0.0023354407521836316
0.002935567911697921
0.00360436944660141
0.004328236418133948
0.005087276918692464
0.005856560383907997
0.00660840464060121
0.007315328819813136
0.007953062976736128
0.008502971756373351
0.008953436640068244
0.009300058811090611
0.009544851299611289
0.009694779278897501
0.009760050452146573
0.009752488901447559
0.009684204319000788
0.009566646792585383
0.009410045139182902
0.009223173540579442
0.009013370878987846
0.00878674057313552
0.008548474112727826
0.008303261548514983
0.008055771400158531
0.007811202446274157