# vtk DataFile Version 2.0
time_10.vtk
ASCII
DATASET UNSTRUCTURED_GRID
POINTS   4141  float 
6.456461599249411e-05         6.365002497104118e-18         0.0                           
0.24999999999999897           6.180460228410024e-05         0.0                           
0.5000601696215541            -1.8787370109399814e-17       0.0                           
0.75                          5.6322133879745174e-05        0.0                           
1.0000540872730626            -4.9931515398411874e-17       0.0                           
1.25                          4.8953116460714475e-05        0.0                           
1.500046042820209             -2.4599861749533345e-16       0.0                           
1.75                          3.9523528323473004e-05        0.0                           
2.000035915770025             6.599564424894309e-17         0.0                           
2.25                          2.8022648869524203e-05        0.0                           
2.5000237513777024            -1.880039781212894e-17        0.0                           
2.75                          1.4618144223432267e-05        0.0                           
3.0000098004359548            -8.755465356981114e-17        0.0                           
3.25                          4.4225815952243854e-17        0.0                           
3.499994094112121             -1.320659295850113e-16        0.0                           
3.75                          -1.7681349658013917e-05       0.0                           
3.999976308259946             4.6812118955882346e-17        0.0                           
4.25                          -3.603010159982118e-05        0.0                           
4.499957644593806             -7.760757978529633e-17        0.0                           
4.75                          -5.5303707642915174e-05       0.0                           
4.9999380769674975            -9.098862964458101e-17        0.0                           
5.25                          -7.545377725848579e-05        0.0                           
5.499917628846312             -8.192356397036664e-17        0.0                           
5.75                          -9.653910604612673e-05        0.0                           
5.999896192865699             -1.1947779081561002e-16       0.0                           
6.25                          -0.00011876865646420802       0.0                           
6.499873509929156             1.19064985479728e-15          0.0                           
6.75                          6.432208880549868e-05         0.0                           
7.000063024748153             3.8411766855655815e-06        0.0                           
7.250004282378263             5.993405954377624e-05         0.0                           
7.500058112064692             5.230436027406314e-06         0.0                           
7.7500057327763265            5.385435038323555e-05         0.0                           
8.000051399728703             6.781004935799662e-06         0.0                           
8.250007321247125             4.580623349178162e-05         0.0                           
8.500042660310053             8.419530437635988e-06         0.0                           
8.750008971848356             3.5667686693503434e-05        0.0                           
9.000031826001639             1.0069082773840309e-05        0.0                           
9.250010608778581             2.3478946761945742e-05        0.0                           
9.50001898996227              1.1657642242111911e-05        0.0                           
9.750012161375173             9.429103280050798e-06         0.0                           
10.000004353357182            1.311506523652591e-05         0.0                           
1.3690432351753961e-05        0.29999354574056647           0.0                           
0.249987835148203             0.30001467907358886           0.0                           
0.5000150991692072            0.29997597005359933           0.0                           
0.7499698579007178            0.3000159184194269            0.0                           
1.0000163178166561            0.2999573088522247            0.0                           
1.2499508812788807            0.3000171013231301            0.0                           
1.5000174891953844            0.2999377346699757            0.0                           
1.7499310170320905            0.30001826906432705           0.0                           
2.000018666438514             0.2999172833027707            0.0                           
2.2499102575590744            0.30001949026438124           0.0                           
2.5000199224415174            0.29989584947804315           0.0                           
2.749888445885185             0.3000208410316077            0.0                           
3.0000213324368006            0.2998731734282334            0.0                           
3.249865273631477             0.3000223902678387            0.0                           
3.500006833319604             0.3000623047473823            0.0                           
3.7500608542035963            0.30000855165480017           0.0                           
4.000009480890618             0.30005740966950234           0.0                           
4.250055389319084             0.3000114582262484            0.0                           
4.500012496132616             0.30005069963251785           0.0                           
4.750048014922837             0.3000146425389407            0.0                           
5.000015739450907             0.3000419424233036            0.0                           
5.250038551332207             0.3000179518919967            0.0                           
5.5000190563400535            0.3000310656229424            0.0                           
5.7500269786600535            0.30002123603094255           0.0                           
6.000022302216746             0.30001814478802846           0.0                           
6.250013409258259             0.3000243709850431            0.0                           
6.500025374762196             0.30000330463229646           0.0                           
6.74999797151117              0.3000273986784235            0.0                           
7.000028384304873             0.2999867920762065            0.0                           
7.249980955774968             0.3000301824678506            0.0                           
7.500031022429956             0.2999688635312209            0.0                           
7.74996263750979              0.3000326417775098            0.0                           
8.00003342969012              0.299949868782973             0.0                           
8.249943336211134             0.30003498298203524           0.0                           
8.500035757984524             0.29992998572547963           0.0                           
8.749923166474277             0.3000373314992276            0.0                           
9.000038141439695             0.29990922153473565           0.0                           
9.249902082333692             0.30003983675300394           0.0                           
9.50004073347232              0.29988742162056803           0.0                           
9.74987987489454              0.3000426512930287            0.0                           
10.000043681577674            0.2998642732309238            0.0                           
6.23797832773913e-05          0.6000102115315176            0.0                           
0.25001146563503124           0.6000596652509763            0.0                           
0.5000580483176038            0.6000141924440746            0.0                           
0.7500156530274193            0.6000542228457403            0.0                           
1.0000519906162837            0.6000187313712857            0.0                           
1.2500203325151777            0.6000468425531045            0.0                           
1.5000439149746674            0.6000236152306311            0.0                           
1.7500252793154656            0.6000373386156793            0.0                           
2.000033690024866             0.6000286108331319            0.0                           
2.250030262693548             0.6000256853142913            0.0                           
2.500021338487753             0.6000335051626794            0.0                           
2.7500350861058043            0.6000119837017861            0.0                           
3.0000069877679127            0.6000381638034097            0.0                           
3.2500396663515416            0.5999964219818908            0.0                           
3.499990884128947             0.6000425741787593            0.0                           
3.7500439513163193            0.5999793380480263            0.0                           
3.9999733462483307            0.6000465433383058            0.0                           
4.250047776773238             0.5999609839948316            0.0                           
4.499954635287423             0.6000501616367484            0.0                           
4.750051327384185             0.5999416392926201            0.0                           
4.99993500004211              0.6000536429717106            0.0                           
5.2500548090838475            0.5999214432248366            0.0                           
5.499914520899967             0.6000572012073052            0.0                           
5.750058445030073             0.5999003602232336            0.0                           
5.999893104137436             0.6000610721386832            0.0                           
6.250062472050343             0.5998781808005634            0.0                           
[...]
POINT_DATA  4141
SCALARS Con float 1
LOOKUP_TABLE default
0.0003785788056907976
0.00043339893183751875
0.000538971806668133
0.0006651161897533013
0.0008107960076486739
0.0009768673218752601
0.0011640270160555276
0.0013726351346000129
0.0016026795906603649
0.0018537635574725798
0.002125106297592354
0.002415555464255488
0.002723607935426814
0.003047433878527454
0.003384894815596029
0.003733539936190028
0.00409056765813076
0.00445280077507981
0.004817519715810168
0.0051936411393334134
0.005649753591881382
0.006109961811710731
0.0065023206450696164
0.006875752198198249
0.007254221831894642
0.007635924264951824
0.008020798413466219
0.008409307333248798
0.008802686823172574
0.00920278094854182
0.009611956334832023
0.010033032823066146
0.010469227228942515
0.010924102081299604
0.011401515439973722
0.011905568963037669
0.012440547631832926
0.01301077652488383
0.013619357494653761
0.014250378698909664
0.014615751834347155
0.00038372331985447525
0.0004399761222436777
0.0005478354038592687
0.0006765359652217874
0.0008250422326682018
0.0009941651210399844
0.0011845529038919471
0.0013965129063396612
0.0016299793073367881
0.001884503688075918
0.0021592599195368795
0.0024530623540502867
0.0027643965962136203
0.0030914627685256677
0.0034322345024496615
0.003784552593029957
0.004146314159265036
0.004516105155643746
0.0048948247805159556
0.005296085335626556
0.005709962849650124
0.006121097022159955
0.006520974414629629
0.006913162366898768
0.007299330114069532
0.007685045584158432
0.008071953778833522
0.008461600242305405
0.00885572378196495
0.009256458980605547
0.00966635877665819
0.01008837975121527
0.010525849800540372
0.0109824283445404
0.011462061680830629
0.011968933533017641
0.01250740534071629
0.01308187411183673
0.013695484037329718
0.014332560832265499
0.014701882684028339
0.0003790178804649993
0.0004351179851063687
0.000543002640949784
0.0006720286795030056
0.0008211444586019147
0.000991158715349726
0.0011827113661762375
0.0013961001154521543
0.0016312504642708402
0.00188770968742717
0.002164657153805982
0.0024609320962820477
0.0027750820684483307
0.0031054396975238995
0.0034502466341582317
0.003807864965648085
0.004177194242523491
0.004558241006566303
0.004953916844010421
0.005351385921153576
0.00572556584062187
0.006102821726277485
0.0065062000677566685
0.0069081372412524685
0.007303418889823122
0.007694134383344362
0.008083304728797328
0.008473292627924444
0.008866410532293013
0.009265142808960536
0.009672271945885717
0.01009091977628093
0.010524548991780791
0.0109769426909238
0.011452171131397739
0.011954549114821751
0.01248858017917137
0.013058813591873832
0.01366856447326132
0.014302181217087538
0.014669554569130487
0.00037083508017694204
0.0004268285804680906
0.0005347803597797276
0.0006643285652306718
0.0008144400086008952
0.000985914119335135
0.0011793755184165674
0.0013951028797523038
0.0016330019285154033
0.0018926026013368234
0.002173073659527786
0.002473256486564057
0.0027917215347369392
0.003126852826617172
0.003476965830455885
0.003840459019854143
0.004215890282448458
0.004601834473307226
0.004992801949157685
0.005379797158732426
0.0057630113015719586
0.006146383366089863
0.006534911617133782
0.006930775692419088
0.007325609889150429
0.007717090787600331
0.00810610005970412
0.008494589677194705
0.008884872534954033
0.00927956824495302
0.009681617895835121
0.010094303991661988
0.010521251951930054
0.010966415571251114
0.011434049772130507
0.01192867262699114
0.012455012094069304
0.013017863435446815
0.013620803052015415
0.014248577351757125
0.014613090045785624
0.00035931439157824103
0.00041515127927031184
0.0005232131005701714
0.0006535068463788784
0.000805022338304613
0.000978545391184421
0.0011746758962658957
0.0013936611728546876
0.0016353709744251306
0.0018992959710480077
0.0021845627077028518
0.0024899656939803686
0.002814016792823578
0.0031550084761834507
0.0035110773951833422
0.00388021653743034
0.0042601438028709296
0.004647503592727361
0.005037856256783591
0.00542764613444394
0.005814992484472065
0.006201720127941132
0.006590241222947971
0.006980173424075726
0.007370293289616692
0.007758346348188146
0.008143996246119977
0.008528347235703579
0.008913360715848166
0.009301560436575223
0.009695928054504945
0.010099859639563124
0.010517140879445702
0.010951922774789088
0.011408692123024642
0.011892233938962191
0.012407578946912416
0.01295986154691967
0.013553044997677198
0.01417247707015009
0.014532912940423167
0.0003444062486535063
0.00040005216381051287
0.0005082698217750725
0.0006395376266011038
0.0007928703028275723
0.0009690327150118873
0.001168589599442053
0.001391743080809854
0.0016383085003359278
0.0019077118313260582
0.0021990011960835052
0.0025108716919392936
0.002841700695855208
0.003189585533568581
0.003552363810297235
0.003927585516649877
0.004312366920724005
0.0047033716472294615
0.005097166127849095
0.005490810509182114
0.005882882771546271
0.006273210269242057
0.006662161928141752
0.007049844633751279
0.0074354684636080085
0.007818342340091362
0.008198240269312549
0.00857593884946743
0.008953110964398105
0.009332143657625969
0.009716009196431934
0.010108189908013394
0.010512630172292476
0.01093369956966995
0.01137615781260557
0.011845115707555103
0.012345983356836378
0.012884331076223205
0.013464634623698764
0.014073019746678775
0.014428014074900688
0.00032609267129867994
0.00038151271441961795
0.0004899352690346506
0.000622409084484636
0.0007779744536583754
0.0009573669805053084
0.0011611056195901693
0.0013893340798369611
0.0016417960973996728
0.0019178298549487392
0.002216373966266724
0.0025359837860094306
0.002874854980543278
0.0032308476557894334
0.0036015016784172378
0.0039840337857755944
0.004375362858975106
0.00477223138302955
0.0051714757133919185
0.005570464836106137
0.005967353103420112
0.006361135105655504
0.006751314702435805
0.007137493645111226
0.00751929427441155
0.007896421363966661
0.008269047218698141
0.008638005521689703
0.009004901971615012
0.00937207363623619
0.00974251409077883
0.010119806388089233
0.010508071135915014
0.010911924701473445
0.01133644166174927
0.011787115960819777
0.012269811496327462
0.012790628168297406
0.013354666499829096
0.013949013051215015
0.014297053319673328
0.0003044033914988984
0.0003595588122010505
0.0004682293933321976
0.0006021372859291602
0.0007603468341924565
0.0009435555667136764
0.0011522272357258835
0.0013864366454525295
0.0016458429790430747
0.0019296797813362608
0.0022367546411804244
0.0025654582376654655
0.002913781605754327
0.003279339705820084
0.003659400675934514
0.004050931831435824
0.004450683938888935
0.004855341517475872
0.0052617493222382435
0.005667147283128235
0.006069355128960148
0.006466793755333377
0.006858383388869093
0.007243406113141916
0.007621419658227756
0.00799232751780732
0.008356497244004375
0.008714912310916624
0.00906924965817285
0.00942190091024379
0.009775946202805088
0.010135112588380043
0.010503732420500489
0.010886706023634484
0.011289467502160148
0.011717950085023925
0.012178542209112485
0.012677960868019058
0.013222042260345535
0.0137990391818613
0.014138429966654707
0.0002794475177132678
0.00033428672957587106
0.00044322803771900575
0.000578780008518626
0.0007400279082831801
0.0009276224694760566
0.0011419653617292327
0.0013830565946758154
0.0016504641994697564
0.0019433081969091961
0.002260253289684944
0.0025995116889162375
0.002958857648865241
0.0033356556278334934
0.00372690656120528
0.004129320200909602
0.004539424292016329
0.004953716358353028
0.005368844632908421
0.005781789685079382
0.006189996794452428
0.006591437350574697
0.006984599793235686
0.007368450533466056
0.007742418833197009
0.0081064210249735
0.008460931550455545
0.008807057268486174
0.009146597352243942
0.009482067806226764
0.00981669822441026
0.010154410746871437
0.010499792881412602
0.010858070361241933
0.011235081605363776
0.011637251940710787
0.012071559439727365
0.012545420301002377
0.01306551607567954
0.013621483820493795
0.013950312225053706
0.0002514482031181063
0.00030589358060464797
0.00041508495863675795
0.0005524499897072474
0.0007170906411755456
0.0009096030390938225
0.0011303238541264691
0.0013791787842590112
0.0016556460341009419
0.0019587318186379005
0.002286954280586029
0.0026383393827515765
0.003010432821470025
0.0034003323173360488
0.0038047451026767933
0.004220075588564533
0.004642545987363755
0.005068346187555539
0.005493800145621691
0.0059155256615492525
0.0063305649465275815
0.0067364698991497
0.007131345013088606
0.007513865193420785
0.007883289398125952
0.008239487376322657
0.008582978053479141
0.008914972841666351
0.009237409440800468
0.009552970042067949
0.009865082621854378
0.010177911039616915
0.010496339979487065
0.010825959865322953
0.011173053663768256
0.011544584481377646
0.011948176377252734
0.012392018070784976
0.012883739588795675
0.01341459033439845
0.013730695461492791
0.00022078100329845577
0.00027471009130589476
0.0003840544579615777
0.0005233265577258015
0.0006916407113758047
0.0008895325967619007
0.001117276694421917
0.001374733254568274
0.0016613016372951357
0.0019758833590439655
0.002316853660647455
0.0026820475349713393
0.0030687664973014714
0.003473811898628212
0.0038935494419145983
0.004324007383758836
0.0047610070069350075
0.005200318474329841
0.005637828910557436
0.006069705776422466
0.006492538725832306
0.006903449540292619
0.0073001685796139975
0.007681084630932429
0.008045279211787259
0.008392553883202538
0.008723455308375044
0.009039296320027005
0.00934217071940271
0.009634959250270051
0.009921327881011792
0.010205721570901997
0.01049335787027305
0.010790223793078382
0.011103077500676602
0.01143945365843908
0.011807664943359882
0.012216731620095947
0.012675322916403943
0.013176534027765524
0.013477483174372641
0.00018801407248944627
0.00024123415835931695
0.00035051286752695656
0.0004916641389686129
0.0006638115691258575
0.0008674280173773239
0.0011027365825955668
0.0013695519584049688
0.00166721776594646
0.0019945510561501564
0.002349795767314178
0.002730593768985916
0.0031339821626056113
0.003556424171335703
0.003993878399075954
0.004441907563494958
0.004895822993758285
0.0053508559010336096
0.005802341866609956
0.00624590256116877
0.006677609743521024
0.007094120819490887
0.007492781523397507
0.00787169742244235
0.008229779596232608
0.008566771235594826
0.008883260603205817
0.009180684130201322
0.00946132240677707
0.009728291599006837
0.009985533560286872
0.010237808643462345
0.010490694964784497
0.010750597007696318
0.011024764527310646
0.01132132020359911
0.011649288322105582
0.012018558854750144
0.012438911391620984
0.012905519548286849
0.013188594974630137
0.00015394662088795736
0.00020616201561579189
0.0003149762947586476
0.0004577955800584078
0.0006337528358563389
0.0008432612075052571
0.0010865142556642391
0.0013633156004807538
0.0016729919465177695
0.002014310363400582
0.002385405238792622
0.002783726884911537
0.003206023537371977
0.0036483662390228945
0.004106222273584403
0.004574577613556085
0.005048102937371831
0.005521351982306161
0.005988976489806255
0.006445940020222987
0.006887713785790924
0.007310441605645664
0.0077110665268607295
0.008087417634415514
0.008438260264790684
0.008763315882569518
0.009063259210244616
0.009339700120504607
0.009595157641152036
0.009833032621290379
0.010057585356739129
0.010273923583732806
0.010488005353611775
0.01070665960850581
0.010937625165329224
0.011189606014306967
0.011472334761523722
0.011796581027663997
0.012173278365479526
0.012599902305844556
0.012862103044227212
0.00011964018746622368
0.00017041205723383081
0.00027811097057222364
0.00042212781816232777
0.0006016106307319734
0.0008169239750406693
0.0010682684932578307
0.0013554905045409398
0.0016779594718885436
0.0020344460975981592
0.0024230110259394998
0.002840920599630421
0.0032846058026433375
0.0037496771343564507
0.004231002864976955
0.004722851065594418
0.005219088072685161
0.005713418770592045
0.006199648697089079
0.006671945486006826
0.00712507831308744
0.0075546181962349735
0.007957088482403422
0.008330061942751845
0.008672207437929395
0.008983293968415816
0.0092641629588468
0.009516680779182248
0.009743683368064287
0.009948923846685899
0.01013703234388648
0.010313495662209803
0.010484662162080785
0.01065777522203281
0.010841036049735613
0.011043693454660988
0.011276151178273259
0.01155003272150725
0.011877433006263453
0.012258333852483781
0.012496398065429196
8.643379192663441e-05
0.0001351340162916174
0.0002407312364109185
0.00038512734435969877
0.000567499513779379
0.0007881854569645621
0.0010474486630165562
0.0013452572977022655
0.0016811113670874127
0.002053865280211856
0.0024615617303060215
0.002901300223677815
0.003369162354105
0.003860211530424883
0.004368577598438227
0.004887627237252054
0.005410210345616476
0.0059289625589730955
0.006436636575264794
0.006926431677434216
0.007392292201102533
0.007829151505804858
0.008233106820769874
0.008601520274881562
0.008933050644278035
0.00922762763510727
0.009486384838212935
0.009711569465076024
0.009906446231969136
0.01007521100044249
0.010222926651139125
0.010355490834162522
0.010479641904671705
0.010603006852776835
0.01073419238328751
0.010882917293710338
0.011060176887594222
0.011278377737959401
0.011550741487235481
0.011879929571607292
0.012090382951837187
5.593052281040369e-05
0.00010169334514313613
0.00020377935636414947
0.0003472942759481927
0.0005314683760735905
0.0007566468346879076
0.001023235191334307
0.0013314362350627248
0.0016810074450191047
0.0020710039526944625
0.0024995349235903156
0.0029635650638812658
0.0034587912966725673
0.003979619803048628
0.0045192589679135375
0.005069930684032843
0.005623186763247136
0.006170302633947721
0.006702709230935517
0.00721241908684182
0.007692404954683539
0.00813689813658552
0.008541587153956724
0.008903712146247697
0.009222064082538228
0.009496907899676423
0.009729854570089628
0.009923708602473328
0.010082315678840752
0.01021043122665971
0.01031362574083817
0.0103982377931043
0.010471381401917177
0.010541011115461348
0.010616045973433437
0.010706552199319506
0.01082397910282544
0.010981394164298405
0.011193057578166766
0.011464453882084162
0.011643693265861779
2.9937884853507257e-05
7.16178794892026e-05
0.00016828222859800748
0.00030912651415752017
0.0004934687292479919
0.0007217034454530113
0.0009944866670579023
0.0013124181232466445
0.001675693379769507
0.0020837360977750707
0.0025348474546235313
0.0030259130397265904
0.0035522089980880214
0.004107344075083435
0.00468336243940719
0.005271013095010457
0.005860168573832036
0.006440352482276089
0.007001318053817548
0.007533612152261819
0.00802906339243452
0.00848114778513298
0.008885206924644385
0.00923851691774949
0.009540226460772133
0.00979119630772464
0.009993778976628655
0.01015157755844204
0.010269217446150248
0.010352157638419854
0.010406559816940315
0.010439226350462936
0.010457612369704796
0.010469913305271224
0.010485227455680604
0.010513793149939171
0.01056730345369373
0.010659267396480593
0.010804871935180578
0.011012512213619919
0.011156917696349338
1.0345317950591752e-05
4.6491730756298245e-05
0.00013528031255322074
0.0002710915457703573
0.00045334207076477644
0.0006825218356384066
0.0009597055362470927
0.0012861167482103777
0.0016626384827247373
0.0020892998092800893
0.0025647792070955023
0.003085977755583823
0.0036477204883998415
0.004242642125452363
0.004861298598402339
0.005492518107970995
0.006123969556264819
0.00674288865081103
0.007336873003658504
0.007894645583497025
0.008406693360018138
0.008865714514131434
0.009266843263913745
0.009607659073783763
0.009888016830781759
0.01010975304911733
0.010276328574243791
0.010392463988788592
0.01046381279787274
0.01049670412451617
0.0104979737376315
0.010474891811557143
0.010435188513305086
0.010387174449553366
0.01033995140718175
0.010303710426849216
0.010290114874063009
0.010312775661869599
0.010387446922594518
0.010525758729879665
0.010631884459707423
1.82119292935361e-06
2.779203772591352e-05
0.00010578205906623007
0.00023362646170142895
0.0004108038952754487
0.000638037511337597
0.0009170463140375984
0.0012499733675333782
0.00163872484926298
0.002084266810405703
0.0025859305444241912
0.003140793134326757
0.0037432194790976737
0.0043846532423147035
0.005053728738699963
0.005736734845952068
0.006418404476643094
0.007082939488110582
0.007715131473983623
0.008301417832406262
0.0088307289834915
0.009295029227016
0.009689517547047248
0.010012514983644158
0.010265110662561444
0.010450659597640626
0.010574226681927177
0.01064205597995237
0.010661122509075437
0.01063880050050801
0.010582662754464275
0.010500411853784397
0.01039993641336983
0.010289481945187513
0.010177927039360036
0.010075156149212122
0.009992526093379802
0.009943381715191596
0.00994348413381062
0.010006995428150022
0.010071541396703323
3.642926219667665e-07
1.6734661819116524e-05
8.068984936312844e-05
0.0001970385436862464
0.00036548769814016667
0.0005871128828284132
0.0008645395966681746
0.0012012064608306614
0.0016004901621057015
0.002064760611289627
0.0025944146455561343
0.0031869779009766376
0.003836398012321397
0.004532671590323
0.00526193128639458
0.006007062651608869
0.006748823107146112
0.007467326298413695
0.008143662898949994
0.008761394745492503
0.009307690430005868
0.009773961600411715
0.010155971168841054
0.010453487413675461
0.010669620730520548
0.01081000239754664
0.010881948113574798
0.010893714551261877
0.01085391426901227
0.010771117575523641
0.010653642192231002
0.010509515921227735
0.010346591026684117
0.010172790252315397
0.009996469417607123
0.00982688885417909
0.00967478593499801
0.009553057228317183
0.009477123762290145
0.009463184142879097
0.009482784962188635
0.0003270869662162844
0.0005422284445905553
0.0011574531177689406
0.002613881231177051
0.0032491902932735616
0.004710583463701004
0.005507566098187272
0.00712821661911901
0.007902823363183155
0.009266978098812289
0.009822887834316939
0.010281511416967084
0.010640105491864718
0.010900873759988734
0.011069856791020528
0.011155694732375866
0.010268973782097176
0.010036578474074447
0.00916617707427277
0.009020101652659554
0.00891059140606395
3.063413221425519e-06
1.3240529569618831e-05
6.337159662546342e-05
0.00016802618515392823
0.0008173119268183697
0.0015679024959273102
0.0020528026088463725
0.0039520731404791625
0.006321521346707891
0.008622210534817546
0.011168463195743687
0.011118712377908013
0.011016771478192796
0.010872326611030433
0.010694247758044326
0.010490624934829735
0.009800952688742957
0.009570413249402011
0.009354778052470758
0.008933932910677308
1.1813229599423084e-05
1.5123177214334464e-05
5.234997255083472e-05
0.0001453776942790669
0.00029383072751894306
0.0004996664760846187
0.0007675454824922292
0.0011038026787277755
0.0015151716193715326
0.0020073558364985147
0.0025834686705039057
0.0032424678057775412
0.003977804921628044
0.004776587312559269
0.005619551561296352
0.006482045291206718
0.00733600185597356
0.008152627111607797
0.008905300292727097
0.009572116700782413
0.010137608613473334
0.010593418998434497
0.010937972862860008
0.011175394080437906
0.011314008439716082
0.011364759628069496
0.011339785819254667
0.011251300905664497
0.011110832200039838
0.010928800357639814
0.010714391161857394
0.010475658079537596
0.010219799535950612
0.009953569775744233
0.009683800648853864
0.009418027998723929
0.009165239143201307
0.008936740561839997
0.00874719236281607
0.008614586493015608
0.00856464225524766
2.232843304348474e-05
1.8619864753693765e-05
4.435789283641739e-05
0.00012667550421721703
0.00026518198615046605
0.00046211116432689077
0.0007229915281003143
0.001055461214085106
0.0014678565951183544
0.001967588231203686
0.0025593142995902545
0.0032430330615787527
0.004012360452693362
0.004853376490628731
0.005744455917611957
0.006657381435948658
0.007559758117637961
0.008418374926687
0.009202843172130342
0.009888734480159183
0.010459601405839044
0.010907612293308782
0.011232910211490072
0.011442071555814951
0.011546136685623386
0.011558635218116264
0.011493898867085524
0.011365808241071656
0.011187000810657603
0.010968491222955554
0.0107196207665805
0.010448249416696866
0.01016111876523192
0.00986433677504771
0.009563958694116246
0.009266663412911965
0.008980523370035031