# vtk DataFile Version 2.0
time_10.vtk
ASCII
DATASET UNSTRUCTURED_GRID
POINTS   4141  float 
1.679971828414423e-05         -9.188207110481458e-18        0.0                           
0.2499999999999993            1.588564634165308e-05         0.0                           
0.5000153783928425            -1.9857458000996268e-16       0.0                           
0.75                          1.424712799308074e-05         0.0                           
1.0000136176911523            1.768515137932982e-15         0.0                           
1.25                          1.222091146513525e-05         0.0                           
1.5000114508576672            -3.95071813702802e-17         0.0                           
1.75                          9.764271861765835e-06         0.0                           
2.0000088479178433            4.912186839799529e-17         0.0                           
2.25                          6.873015069830389e-06         0.0                           
2.5000058174133577            -2.4704233325726312e-17       0.0                           
2.75                          3.5813162864302715e-06        0.0                           
3.0000024083083887            -7.432095942413406e-17        0.0                           
3.25                          2.225272975040364e-17         0.0                           
3.4999986521140203            -2.9546003742763273e-18       0.0                           
3.75                          -4.070278073074672e-06        0.0                           
3.999994539725865             -3.839750769955841e-17        0.0                           
4.25                          -8.302046364684605e-06        0.0                           
4.499990248108819             -3.4703664314612496e-17       0.0                           
4.75                          -1.2704761671663311e-05       0.0                           
4.999985793346584             -7.517493553311131e-16        0.0                           
5.25                          -1.7261252184705528e-05       0.0                           
5.499981184838524             2.667915558793062e-16         0.0                           
5.75                          -2.1982509350709783e-05       0.0                           
5.99997640019834              -1.0110812884520629e-16       0.0                           
6.25                          -2.6914436252829105e-05       0.0                           
6.499971381937446             1.1565794247586196e-16        0.0                           
6.75                          1.6753820624192938e-05        0.0                           
7.000016312960964             1.2742185986821206e-06        0.0                           
7.250001359599992             1.533417045362502e-05         0.0                           
7.500014789330405             1.5462216910219269e-06        0.0                           
7.7500016464011985            1.3574121034992214e-05        0.0                           
8.00001289915174              1.8573810812303016e-06        0.0                           
8.250001966824279             1.140647399809672e-05         0.0                           
8.50001058701077              2.1901347498048496e-06        0.0                           
8.750002302629023             8.801058661592512e-06         0.0                           
9.00000783565229              2.5260416583483374e-06        0.0                           
9.250002635760339             5.765931490772865e-06         0.0                           
9.500004665181738             2.8484891614498125e-06        0.0                           
9.750002950461003             2.342651279243583e-06         0.0                           
10.000001122577698            3.1433792194462694e-06        0.0                           
3.249761082720437e-06         0.2999985625244795            0.0                           
0.2499972275569536            0.3000034377755244            0.0                           
0.5000035204514919            0.2999944744061114            0.0                           
0.7499930635149245            0.30000367936626876           0.0                           
1.0000037559284694            0.29999018168410185           0.0                           
1.2499887132320633            0.3000039048876481            0.0                           
1.5000039782218693            0.29998572520466077           0.0                           
1.7499842061216058            0.30000412539924715           0.0                           
2.000004200484626             0.2999811159436125            0.0                           
2.249979542779296             0.3000043569154044            0.0                           
2.5000044395823977            0.29997633175863975           0.0                           
2.7499746891708083            0.3000046170119441            0.0                           
3.0000047129504916            0.29997131498661367           0.0                           
3.2499695763952117            0.30000492179089916           0.0                           
3.5000023857131746            0.30001617709271317           0.0                           
3.7500157067960833            0.3000027160356795            0.0                           
4.000002898085183             0.30001465771252794           0.0                           
4.2500140725472475            0.300003290992953             0.0                           
4.500003499427643             0.30001276814967714           0.0                           
4.7500120451792744            0.3000039335574611            0.0                           
5.000004156453104             0.3000104520123149            0.0                           
5.250009581007283             0.300004606952612             0.0                           
5.500004831896995             0.3000076916183264            0.0                           
5.750006675084737             0.3000052750879169            0.0                           
6.0000054912121605            0.30000450542066703           0.0                           
6.250003355565269             0.300005908486443             0.0                           
6.500006109180622             0.30000093167526326           0.0                           
6.749999664488658             0.30000650339237983           0.0                           
7.000006692533395             0.29999703156304813           0.0                           
7.249995669459311             0.3000070404562218            0.0                           
7.5000072029808775            0.29999286850658013           0.0                           
7.749991435244597             0.30000751363963              0.0                           
8.00000766356043              0.2999885122332903            0.0                           
8.249987024780344             0.3000079574251176            0.0                           
8.50000810359105              0.29998400063527586           0.0                           
8.749982463715961             0.30000840053369665           0.0                           
9.000008553924472             0.2999793362209456            0.0                           
9.249977742673437             0.3000088772157211            0.0                           
9.500009049740417             0.2999744851316105            0.0                           
9.749972815502623             0.30000942268964537           0.0                           
10.000009625285099            0.2999693775787634            0.0                           
1.6386188038613508e-05        0.600003569369421             0.0                           
0.2500038087442419            0.6000154830366324            0.0                           
0.5000149801390149            0.6000043401356977            0.0                           
0.7500046293421494            0.6000138542240407            0.0                           
1.0000132254630105            0.6000052459638636            0.0                           
1.2500055693848584            0.6000118255311125            0.0                           
1.5000110515379614            0.6000062359069994            0.0                           
1.7500065747607552            0.6000093522079173            0.0                           
2.0000084270022658            0.6000072534401885            0.0                           
2.250007589497902             0.6000064290807621            0.0                           
2.5000053588697666            0.6000082468905872            0.0                           
2.750008565703885             0.6000030839610578            0.0                           
3.0000018829402517            0.6000091806081083            0.0                           
3.250009476768354             0.5999993676043632            0.0                           
3.4999980597502782            0.6000100427974593            0.0                           
3.7500103092664117            0.5999953547533586            0.0                           
3.999993961989805             0.6000108091869955            0.0                           
4.250011045688154             0.5999911083574652            0.0                           
4.499989651867497             0.6000114996769147            0.0                           
4.750011720219131             0.5999866871556455            0.0                           
4.999985180647226             0.6000121567756107            0.0                           
5.250012376469471             0.5999821202022085            0.0                           
5.499980565207831             0.6000128285011281            0.0                           
5.7500130648953975            0.599977399423187             0.0                           
5.999975784693006             0.6000135685234865            0.0                           
6.250013839613801             0.5999724782547665            0.0                           
[...]
POINT_DATA  4141
SCALARS Con float 1
LOOKUP_TABLE default
4.565821542165077e-05
4.896636087057984e-05
5.551373092334637e-05
6.315253552609391e-05
7.176802144409058e-05
8.138204218388716e-05
9.201099989277374e-05
0.00010365444836541739
0.00011629338527135938
0.00012988992093203284
0.00014438770611295839
0.00015971304401709793
0.00017577657274897514
0.00019247532216303082
0.00020969481702387934
0.00022731064672422562
0.00024518924763838006
0.00026318682904726345
0.00028118352413222943
0.00029933894308642494
0.0003196476293125445
0.0003399929406979909
0.0003583122215282205
0.0003757275503744766
0.00039311838878660407
0.00041043319889276714
0.00042769730870032013
0.00044495799757065775
0.0004622948187151511
0.0004798137274888334
0.0004976439918484366
0.0005159355394127724
0.0005348566946541823
0.0005545921064279293
0.0005753406948003117
0.000597313510195862
0.0006207311457138183
0.0006458168740882351
0.0006727351944223323
0.0007007594180679004
0.0007168979194993336
4.634169309883648e-05
4.9726227720704846e-05
5.640525094043842e-05
6.418575126072372e-05
7.295327282622845e-05
8.272695831426316e-05
9.352050723816634e-05
0.00010533061681605676
0.00011813541095442944
0.00013189423185563473
0.00014654822179772435
0.00016202163751813479
0.00017822384481968256
0.00019505194193873693
0.00021239401888166153
0.00023013354328758814
0.00024815610874597926
0.00026637110689651595
0.00028474704834569677
0.0003037312817985268
0.0003229109780232124
0.00034175875864245024
0.000360050251798535
0.00037802544210276134
0.00039561388171440473
0.0004130182418608216
0.00043031257643796666
0.00044757912805484795
0.0004649139546265329
0.0004824330865002194
0.000500272621381236
0.0005185877389547673
0.0005375511832256839
0.0005573515248118303
0.0005781912880471039
0.0006002848879774288
0.000623856051971929
0.0006491310267455527
0.000676276147783916
0.0007045768119288842
0.0007208933785534968
4.595348491872545e-05
4.9336945264670516e-05
5.6030691029770085e-05
6.384557286999361e-05
7.266446091707345e-05
8.250546630965095e-05
9.338087672124148e-05
0.00010528587067326632
0.00011819701867038857
0.00013207219649629778
0.0001468513485928061
0.0001624581059712658
0.00017880232826091982
0.00019578374190776517
0.00021329718904325394
0.00023124054751020356
0.00024952939442970175
0.0002681139785533507
0.00028705658200624696
0.0003058603256895868
0.0003238435087165423
0.00034177407555501286
0.0003602225262579462
0.0003784077103788194
0.00039622619146477346
0.0004137328204507837
0.0004310438255172257
0.0004482639427387382
0.0004655062327595895
0.00048289735825221786
0.0005005807253506681
0.0005187170734650178
0.0005374839436545687
0.0005570745324898939
0.0005776961745398388
0.0005995685364078116
0.0006229212022938116
0.0006479869502006111
0.0006749402327669888
0.000703070162183218
0.0007192944703142176
4.528107192252307e-05
4.86701473926536e-05
5.5391515812771035e-05
6.326343549869842e-05
7.216789994989736e-05
8.212092213314101e-05
9.313241888443463e-05
0.00010519494370819867
0.00011828231370547378
0.00013234964650431856
0.00014733428176785628
0.0001631576106961417
0.00017972788657810433
0.00019694413443728143
0.00021470124537699198
0.0002328963006581419
0.0002514323047600774
0.0002702185274080047
0.0002890305906658757
0.000307584206067448
0.0003258526453984939
0.00034392752314206493
0.000361939750585593
0.00037993610777351455
0.00039768560304652753
0.00041514763082604823
0.0004323730189315667
0.0004494560868087381
0.0004665106657540219
0.00048366837682426437
0.0005010783856916485
0.0005189074174818539
0.0005373392481805756
0.0005565737810982333
0.000576825778282431
0.000598323270528272
0.0006213053501400699
0.0006460156628922626
0.0006726409095445454
0.0007004903646927951
0.0007165780003458984
4.4330383745092713e-05
4.772770504823447e-05
5.4489810540970414e-05
6.244382431615612e-05
7.147015764642115e-05
8.158193529752322e-05
9.278561780011974e-05
0.00010506991957336097
0.00011840452725566153
0.00013274021637570835
0.0001480098203587646
0.00016413005345152932
0.00018100415827885895
0.00019852523173593072
0.00021657978214059779
0.00023504982298102939
0.0002538111671602577
0.0002727088567889166
0.0002915674369138083
0.00031024037258408336
0.0003286447353301224
0.0003468111842227968
0.000364792297457151
0.00038257137316957283
0.00040011910809739805
0.0004173900589115342
0.00043440585126398824
0.00045123772762474323
0.0004679912270438323
0.00048479691138386964
0.0005018069204999249
0.0005191931920864961
0.0005371462884014326
0.0005558742636853456
0.0005756014554408984
0.0005965670376478001
0.0006190230126526934
0.0006432279137313512
0.0006693860970595191
0.0006968345002433109
0.0007127243908906074
4.3092876024528675e-05
4.65023965731878e-05
5.3319824436559286e-05
6.138258632228394e-05
7.056880252800246e-05
8.088771298333768e-05
9.234120092127384e-05
0.00010491286538002175
0.00011856680513276459
0.00013324774609239993
0.00014888195797886628
0.0001653789173167865
0.00018263360679140282
0.00020052916962607874
0.0002189392683107161
0.00023772922820112523
0.0002567533938606284
0.0002758578465886892
0.00029489120522692143
0.00031372610476610926
0.00033228775884142043
0.0003505475998996041
0.00036850209565433904
0.0003861496252835368
0.0004034744618231836
0.00042047615410276807
0.00043717937104125143
0.0004536483162079338
0.0004699823599526998
0.00048631043623803354
0.0005027867912652425
0.0005195883660252477
0.0005369130340903043
0.0005549782338218598
0.0005740197407574765
0.0005942903651321083
0.0006160581608157556
0.0006396004397061311
0.0006651440186845055
0.0006920619271473116
0.0007076891455788333
4.155989636630569e-05
4.498636367357435e-05
5.187546556610309e-05
6.00755741453779e-05
6.946167108361688e-05
8.003806881665758e-05
9.180092592709042e-05
0.00010472746061145912
0.00011877475522053265
0.00013387983583936105
0.00014996048264731245
0.00016691671125264437
0.00018463281914208923
0.0002029797601228759
0.0002218175110865183
0.00024099703906604408
0.00026036337580073444
0.0002797610876597742
0.00029904461452737104
0.0003180923051239498
0.0003368154905965656
0.00035516034311377685
0.00037309857025513146
0.00039061580589581625
0.0004077098436317516
0.00042439292953213903
0.0004407026736430155
0.00045670674095866343
0.0004725050876149631
0.00048822791664874496
0.0005040329444345573
0.0005201030177122467
0.0005366443118265549
0.0005538849561441092
0.0005720739114975404
0.00059147988560533
0.0006123898677953925
0.0006351035641760429
0.0006598749419336578
0.0006861218318404136
0.0007014147393866478
3.972371195034115e-05
4.317269147476585e-05
5.015150491953896e-05
5.851950086408264e-05
6.814751553273138e-05
7.903384413609341e-05
9.116780684311061e-05
0.00010451906057941778
0.00011903636601338233
0.00013464757440378376
0.00015126030122878683
0.00016876327970367631
0.00018702833533936625
0.00020591289321837
0.00022526292051533363
0.000244916564995429
0.0002647089171471698
0.00028447873481148944
0.00030407704684824965
0.0003233758880399582
0.0003422749163575912
0.00036070290936857037
0.0003786151306201829
0.00039598948182739967
0.00041282410865869283
0.0004291393806888762
0.00044498096713178713
0.0004604234983518326
0.0004755718733675932
0.0004905610074886984
0.0005055543758059623
0.000520742363993773
0.0005363408301781339
0.0005525900050332603
0.0005697536714980874
0.0005881184644301453
0.0006079928738976666
0.0006297022957634378
0.0006535322817359339
0.0006789544978668819
0.0006938335818502355
3.7579380045654995e-05
4.105700357688069e-05
4.814486980921335e-05
5.671287629326184e-05
6.662655972861122e-05
7.787710211827693e-05
9.044596233045982e-05
0.00010429421164813714
0.00011936118821590897
0.00013556431130580567
0.00015279959567413901
0.0001709429053690623
0.00018985198723931755
0.00020936928986178618
0.0002293256258750094
0.0002495447786303186
0.0002698492502908329
0.00029006713409146615
0.00031003964522545186
0.0003296282693707368
0.0003487200471439191
0.0003672302172767853
0.00038510232965033856
0.00040230712037702
0.0004188418330727209
0.000434730496496614
0.00045002535645812203
0.00046480816483565683
0.0004791909727751269
0.0004933159371669874
0.0005073545100392113
0.0005215063865017009
0.0005359985775973199
0.0005510847645961963
0.0005670449763890976
0.0005841854581545094
0.0006028383458314996
0.0006233575670539376
0.0006460643197308457
0.000670493395590772
0.0006848700427938526
3.512696081572105e-05
3.8639444402198215e-05
4.585614911890059e-05
5.465700430938998e-05
6.490098388939249e-05
7.657110500134546e-05
8.964010582631581e-05
0.00010405969593777028
0.00011975895334771907
0.00013664385508153803
0.00015459755049840145
0.0001734814958909568
0.00019313757103049832
0.0002133912493411776
0.00023405587072691296
0.00025493801192556976
0.0002758438708659987
0.0002965863875180532
0.00031699254602729834
0.00033691005423166506
0.0003562126085951224
0.0003748032407920863
0.000392615836897312
0.00040961545653957063
0.0004257981655656611
0.0004411909970499514
0.0004558520880082576
0.00046987082630061745
0.00048336774932366796
0.0004964940936133787
0.0005094311019401434
0.0005223893443070536
0.0005356082523681517
0.0005493560350092519
0.0005639299977500847
0.0005796571787268168
0.0005968949189755148
0.0006160278998280535
0.0006374164572936288
0.0006606679225847395
0.0006744434560943763
3.2374193913008086e-05
3.5927006413634296e-05
4.329129611375446e-05
5.235701052865574e-05
6.297526633586795e-05
7.51199864193474e-05
8.875461074872343e-05
0.0001038210600030343
0.00012023766628546362
0.0001378982299279537
0.00015667189824347457
0.0001764040933331866
0.0001969186703056869
0.00021802142668632204
0.00023950496965543234
0.00026115484190626724
0.00028275664402857385
0.0003041037297555076
0.00032500487342431984
0.00034529123511853706
0.00036482201241085267
0.0003834884132245524
0.00040121595671596926
0.00041796539591817066
0.0004337327384076385
0.0004485487688682244
0.00046247836217175
0.00047561964665429856
0.0004881031133381186
0.000500090687770124
0.0005117749298689503
0.0005233785239374765
0.0005351542252088763
0.0005473853775647858
0.0005603870110356481
0.0005745074443586507
0.0005901299960087332
0.0006076714773571299
0.000627534060171494
0.0006494069620600659
0.0006624720424902733
2.9339600906533376e-05
3.2936204532535234e-05
4.04634741991244e-05
4.9822816170331004e-05
6.0856282673353815e-05
7.352802817887012e-05
8.779204229299571e-05
0.0001035805359611186
0.00012080108739262181
0.00013933492555975847
0.00015903618309550166
0.0001797324516804661
0.00020122691096194137
0.00022330218816529263
0.00024572591797078047
0.0002682578107833707
0.0002906578239569445
0.000312694876681572
0.00033415541558283885
0.00035485116041537667
0.00037462542153789423
0.00039335766242221663
0.00041096620522593436
0.0004274093089233417
0.0004426849510189056
0.0004568297385538816
0.00046991731963654725
0.0004820565896464912
0.0004933899306300424
0.0005040917012780563
0.0005143671659656999
0.0005244520497955077
0.0005346128611977877
0.0005451480601009359
0.0005563900826300697
0.0005687081088475172
0.0005825111924311353
0.0005982485754587736
0.0006163658963563912
0.000636643270130631
0.0006488778148417
2.6055988315871288e-05
2.9696007508906245e-05
3.7394954796663473e-05
4.706994014408638e-05
5.855303584440557e-05
7.179837914628337e-05
8.675100339749809e-05
0.00010333420583689756
0.00012144545541316183
0.00014095347565076883
0.00016169652167730508
0.00018348232554604452
0.00020609010541089835
0.00022927483325688644
0.00025277371697581853
0.0002763145762019746
0.00029962555536586856
0.00032244542068429445
0.00034453360021967095
0.00036567915498447886
0.00038570800761290864
0.00040448805574058293
0.0004219320245414367
0.00043799827705889985
0.00045268993054960156
0.0004660527863676628
0.0004781725847024475
0.0004891720223524755
0.0004992080000876425
0.0005084693560599031
0.000517175426850024
0.0005255755961361433
0.0005339499945544726
0.0005426114123648098
0.0005519084036047443
0.0005622294631702553
0.0005740078934862623
0.0005877243224529481
0.0006038681403312434
0.0006223187118539686
0.0006335924598558375
2.2574146415316758e-05
2.6250859526375714e-05
3.4118875320921595e-05
4.411995717334551e-05
5.607583999426501e-05
6.993107839439478e-05
8.562315184568356e-05
0.00010306824642407365
0.0001221552785038801
0.00014274117579868176
0.00016464766834286906
0.0001876602878070301
0.00021153014307715917
0.0002359787387884885
0.0002607057412106473
0.0002853992528445049
0.0003097477755310576
0.000333452855667283
0.00035624128423863494
0.0003778757960894418
0.000398163471311191
0.00041696132915228836
0.0004341790341706961
0.00044977893852790845
0.0004637739886513235
0.0004762241371195617
0.00048723197406039443
0.0004969382389923275
0.0005055177630082909
0.0005131763155953118
0.0005201486697396726
0.0005266981332441912
0.0005331176681169653
0.0005397326636788704
0.0005469053238578751
0.0005550405527298846
0.0005645929009706707
0.0005760717588581486
0.0005900089180941947
0.0006063903184836133
0.0006165642628143366
1.8966418695606212e-05
2.2663463787006297e-05
3.0680598703627464e-05
4.100038736721383e-05
5.343481999852076e-05
6.792024836368915e-05
8.438925804489765e-05
0.00010275412195232188
0.00012289804848429506
0.00014466780555075928
0.00016786826772544823
0.00019226000582647134
0.00021756068654000402
0.00024345065954512764
0.0002695826124599354
0.00029559457939825094
0.00032112521414073294
0.00034582983468321987
0.0003693956891264771
0.0003915550324967335
0.00041209493477167315
0.0004308632466250382
0.0004477706788069417
0.0004627894146408006
0.00047594900436849724
0.00048733053221216844
0.0004970599677143862
0.0005053016720356304
0.0005122527182786974
0.0005181386471567057
0.0005232109782639324
0.0005277467428081933
0.0005320501235061443
0.000536456248040972
0.0005413370948187561
0.0005471093988724845
0.0005542441890907817
0.0005632751222756785
0.0005747732775219106
0.0005888370230314865
0.0005977658462200962
1.5329543888813173e-05
1.9016811871666282e-05
2.7138256748806724e-05
3.7743828799586355e-05
5.063765347336959e-05
6.575049510774778e-05
8.301434540539107e-05
0.00010234270380232473
0.0001236178370277343
0.0001466793201168878
0.00017131532266299713
0.00019725811866648515
0.00022418493389920801
0.0002517246621001792
0.0002794702332718938
0.0003069956868570758
0.000333876247139641
0.00035970929182885795
0.00038413396167083025
0.00040684740570881377
0.0004276162566290484
0.0004462826579664162
0.000462764960124239
0.0004770538551490533
0.0004892051734838472
0.0004993307052054954
0.000507588462354726
0.0005141735405660272
0.0005193104555683481
0.0005232476438308115
0.0005262544423184743
0.0005286207281785118
0.0005306592762056072
0.0005327107685594081
0.0005351514476379672
0.0005384033444964238
0.0005429468934339867
0.0005493335529782599
0.0005581684280624708
0.0005696668916208323
0.0005772027366433954
1.1785734796738908e-05
1.5414612259596028e-05
2.356208481616717e-05
3.438617645708776e-05
4.7686800141637955e-05
6.339275388997033e-05
8.144194962159938e-05
0.00010175739780807468
0.0001242278934054075
0.00014869068312733079
0.00017491808151957864
0.0002026099960640676
0.00023139393230184302
0.0002608333021284737
0.00029044379612200045
0.0003197163959756717
0.0003481445454690728
0.0003752522736369088
0.00040061992906439416
0.00042390466949849274
0.0004448537542310873
0.0004633099814203884
0.00047920972625413346
0.0004925749915975177
0.0005035014501867275
0.0005121445307403452
0.0005187054488532125
0.0005234187561147702
0.0005265423525061272
0.0005283507056719049
0.0005291314413358576
0.0005291853941607764
0.000528829979548462
0.0005284057487038823
0.0005282860020485444
0.0005288894482306012
0.0005306961071970967
0.0005342650607849745
0.0005402296273942534
0.0005489243460464863
0.0005549214566462644
8.481285991419154e-06
1.1979206381411316e-05
2.0031741371735668e-05
3.0964903242987644e-05
4.457698413496714e-05
6.0799511038306384e-05
7.9587737289565e-05
0.00010088671497788661
0.00012460279227259608
0.00015057835960415248
0.0001785718702214426
0.00020824596839276598
0.000239166103437363
0.0002708110145001484
0.0003025949134948478
0.00033389932524387173
0.0003641107888004982
0.00039265948817807664
0.0004190537321707654
0.00044290601549833993
0.000463948092429487
0.00048203449044907073
0.000497135719568302
0.0005093237482986189
0.0005187528984860796
0.0005256392645284294
0.0005302412428360031
0.0005328430290113844
0.0005337421932406532
0.000533241789660181
0.0005316470247259436
0.0005292662297727989
0.0005264157920057722
0.0005234286922543032
0.0005206664254795719
0.0005185342113325073
0.0005174995392594751
0.0005181145306815418
0.0005210250550503708
0.0005266977158959694
0.0005310204558747568
5.577334868486176e-06
8.84479784796364e-06
1.6635771266316162e-05
2.7518802298941204e-05
4.129062154070514e-05
5.789907776798569e-05
7.733341686714956e-05
9.957768759840082e-05
0.00012457147808826648
0.00015217362238723829
0.0001821327907620911
0.0002140688558048577
0.0002474689742007387
0.0002817008471110104
0.0003160433287478256
0.00034973145234040536
0.0003820100093919619
0.0004121878687438325
0.00043968501747856595
0.000464065918612786
0.00048505571859544435
0.000502539305927585
0.0005165460251006371
0.0005272246725068967
0.0005348138413253417
0.0005396122000893697
0.000541952074840069
0.0005421784549132894
0.000540634320652948
0.0005376523479607914
0.0005335524944601371
0.0005286447802024453
0.0005232365441859821
0.0005176436231577215
0.0005122050909919692
0.0005073013676276368
0.0005033758122950912
0.0005009579644242379
0.0005006835314117069
0.0005031213688487863
0.0005056408805318389
3.2618686641073427e-06
6.16058189589466e-06
1.347030003140497e-05
2.4079777553938477e-05
3.779523735733588e-05
5.459873523822605e-05
7.453212571085391e-05
9.764157224850021e-05
0.00012392220791048632
0.00015326682774507143
0.00018542241702766774
0.0002199608717753804
0.00025627018055404655
0.000293570870309465
0.00033095868814498133
0.0003674695989332896
0.00040215767553725845
0.00043417333385972675
0.0004628286852301077
0.0004876402226071284
0.000508344312689635
0.0005248869800913617
0.0005373939216555796
0.0005461289917779843
0.0005514492482456858
0.0005537630934861165
0.0005534956801969952
0.0005510635558997629
0.0005468587501364726
0.0005412415119678273
0.0005345402775674178
0.0005270575508517749
0.0005190805122414158
0.0005108955820508302
0.0005028064987014718
0.000495155984362131
0.0004883509476499398
0.00048289203598636033
0.00047938875195460267
0.0004784959012056281
0.0004790890001577874
3.49388336947474e-05
5.186479351596178e-05
9.626506906969955e-05
0.00018985738175021665
0.00022734983478978513
0.00030769317627659537
0.0003484268542305087
0.00042505856129290947
0.0004587580037588983
0.0005130343815357787
0.0005329019914888232
0.0005479119532855963
0.0005583361089228427
0.0005645952602634803
0.0005671954879012003
0.0005666732715626582
0.0005138042282111298
0.0005032758386339199
0.00046503747277031634
0.0004585782000847183
0.000453343441927393
1.7626671075818999e-06
4.334565768639259e-06
1.1120984570666863e-05
2.1367010199290452e-05
7.226341131945842e-05
0.00012393906715796633
0.00015522226791632994
0.0002669534613069799
0.0003879400609307968
0.0004882505358286113
0.0005635538126120102
0.0005583235396040493
0.000551415616705342
0.0005432060667040274
0.0005340182330238902
0.0005241331177594693
0.0004928045030054282
0.00048268400016916166
0.0004732747500827324
0.000454592084716689
1.0859466507560543e-06
3.2522571841736425e-06
9.404288870130419e-06
1.9125314229909156e-05
3.228145199855352e-05
4.894058852776308e-05
6.927822415828854e-05
9.349599819588814e-05
0.00012173349385474312
0.00015398268715355375
0.0001900103696234168
0.0002293008482126675
0.0002710325525227753
0.00031410074727536744
0.000357191011608741
0.00039889651422133217
0.0004378595398757471
0.00047290942926501734
0.0005031695725676417
0.0005281146384271245
0.0005475736563983961
0.0005616872130753401
0.0005708354610541991
0.0005755551722406695
0.0005764611387384781
0.0005741815059676619
0.0005693113219957235
0.0005623841626990259
0.0005538593797919766
0.0005441213827605725
0.0005334875437047486
0.0005222219615585481
0.0005105531141680923
0.0004986945053954382
0.0004868679568080592