# vtk DataFile Version 2.0
time_10.vtk
ASCII
DATASET UNSTRUCTURED_GRID
POINTS   4141  float 
8.594080155274422e-05         -2.787990155086068e-17        0.0                           
0.2500000000000003            8.175230090117029e-05         0.0                           
0.5000793601374537            -1.322100988242687e-17        0.0                           
0.7500000000000001            7.389517259499026e-05         0.0                           
1.0000707942510798            -3.1315003925855267e-17       0.0                           
1.2500000000000002            6.380231127421402e-05         0.0                           
1.5000598973484016            -3.4860291087104264e-17       0.0                           
1.75                          5.125349212453568e-05         0.0                           
2.000046515752354             -1.2875645978043017e-17       0.0                           
2.25                          3.623002999518854e-05         0.0                           
2.500030698130848             -1.4956837686409453e-17       0.0                           
2.7500000000000004            1.892041133857309e-05         0.0                           
3.0000127193139123            4.1200455915996133e-17        0.0                           
3.25                          -2.118692106893451e-17        0.0                           
3.4999926937125783            1.624431522292835e-16         0.0                           
3.75                          -2.203069966694117e-05        0.0                           
3.999970437569426             2.551289308071588e-18         0.0                           
4.25                          -4.5012599360230265e-05       0.0                           
4.499947075864984             -9.513320459692619e-17        0.0                           
4.75                          -6.909965831108469e-05        0.0                           
4.999922641024453             -6.827887549572416e-17        0.0                           
5.25                          -9.422301665796886e-05        0.0                           
5.499897164912999             -1.8094205211177377e-17       0.0                           
5.75                          -0.00012045477418883623       0.0                           
5.9998705166179125            -1.979532639675066e-17        0.0                           
6.25                          -0.00014804661638256688       0.0                           
6.4998423855943015            4.2229314755399524e-16        0.0                           
6.75                          8.566100910351195e-05         0.0                           
7.000083663154037             5.835278070862088e-06         0.0                           
7.250006347859651             7.908907948514934e-05         0.0                           
7.500076476932392             7.455395177126949e-06         0.0                           
7.750008044759238             7.052645602654176e-05         0.0                           
8.000067164316812             9.278372636947942e-06         0.0                           
8.250009915559454             5.962490662046831e-05         0.0                           
8.500055438647234             1.1212643267617852e-05        0.0                           
8.75001186543934              4.622936801833817e-05         0.0                           
9.00004121218985              1.3162693540489345e-05        0.0                           
9.250013800900083             3.0384598987550978e-05        0.0                           
9.500024593310666             1.5041934746693049e-05        0.0                           
9.75001563900123              1.2312570638526166e-05        0.0                           
10.000005826737896            1.6774300938263715e-05        0.0                           
1.742031582028501e-05         0.29999212597949787           0.0                           
0.2499849367119426            0.3000185596638163            0.0                           
0.5000190586715529            0.29997004457174026           0.0                           
0.7499623845201094            0.30002002812449985           0.0                           
1.0000204999543454            0.29994667913016987           0.0                           
1.2499386455790757            0.3000214256744762            0.0                           
1.5000218843634756            0.2999222346713709            0.0                           
1.749913858848942             0.3000228078906346            0.0                           
2.0000232791462818            0.2998967541148026            0.0                           
2.249888013390872             0.3000242573645854            0.0                           
2.500024771001815             0.2998701083246209            0.0                           
2.7498609185224696            0.30002586317081587           0.0                           
3.000026447426876             0.2998419856231748            0.0                           
3.2498322059014058            0.3000277047832472            0.0                           
3.500010687220735             0.3000828333121169            0.0                           
3.7500806578751944            0.3000126793532792            0.0                           
4.000013763252929             0.30007566913303874           0.0                           
4.250072822683806             0.300016080475799             0.0                           
4.500017301093181             0.3000663591414681            0.0                           
4.75006272269388              0.30001983142554534           0.0                           
5.0000211266256               0.3000546110627889            0.0                           
5.250050131712134             0.3000237411628548            0.0                           
5.500025046784026             0.30004033354840165           0.0                           
5.750035024286089             0.30002762335480493           0.0                           
6.000028883385715             0.3000236214105401            0.0                           
6.250017543616539             0.3000313269301409            0.0                           
6.500032509968654             0.30000465590743086           0.0                           
6.749997884278064             0.3000348635895066            0.0                           
7.000036004273207             0.29998374732853955           0.0                           
7.249976397733415             0.30003810989771507           0.0                           
7.500039100065059             0.299961216619738             0.0                           
7.749953416653837             0.3000410101941961            0.0                           
8.000041940146192             0.2999374460935846            0.0                           
8.249929287045656             0.30004377550080047           0.0                           
8.500044692552564             0.29991263351415753           0.0                           
8.749904136994042             0.30004655739032543           0.0                           
9.000047518662138             0.2998867814370232            0.0                           
9.249877905942283             0.30004953288666414           0.0                           
9.500050598989617             0.2998597007157129            0.0                           
9.749850340844997             0.3000528793788945            0.0                           
10.000054104173667            0.2998310167846459            0.0                           
8.342021916828726e-05         0.6000159827214435            0.0                           
0.2500174333573762            0.6000792887283846            0.0                           
0.500076919176428             0.6000206086059835            0.0                           
0.7500223183381574            0.600071481520852             0.0                           
1.0000683835786648            0.6000259357234627            0.0                           
1.2500278225410277            0.6000613733688597            0.0                           
1.5000574464184235            0.6000316977545144            0.0                           
1.750033664217562             0.600048731523625             0.0                           
2.0000439440833735            0.6000376023041437            0.0                           
2.250039554617253             0.6000335269513901            0.0                           
2.5000279096709837            0.6000433843757712            0.0                           
2.7500452494950984            0.6000158964120335            0.0                           
3.000009517854489             0.6000488700600378            0.0                           
3.250050628875269             0.599996090753455             0.0                           
3.4999890779252243            0.6000540208108569            0.0                           
3.750055630181559             0.5999745074998232            0.0                           
3.9999669712551014            0.6000586722557135            0.0                           
4.250060123775407             0.5999514634033875            0.0                           
4.499943515680637             0.6000629342706844            0.0                           
4.750064310016191             0.5999272731007737            0.0                           
4.999918986964385             0.6000670471843192            0.0                           
5.250068427965038             0.599902088243862             0.0                           
5.499893469389907             0.600071264987831             0.0                           
5.75007274208606              0.5998758578587223            0.0                           
5.999866843682825             0.600075864515723             0.0                           
6.250077529026307             0.5998483268761939            0.0                           
[...]
POINT_DATA  4141
SCALARS Con float 1
LOOKUP_TABLE default
0.0009183279902740877
0.0010104410215168046
0.0011930575626617507
0.0014078661854678258
0.0016521195920884467
0.0019267624699353084
0.00223254894939374
0.002569726942760243
0.0029379888736239135
0.003336461539247146
0.0037637178862825844
0.00421780773470456
0.00469630348920585
0.005196354015649165
0.005714735751528775
0.006247881275811
0.006791883099103252
0.007342438881450258
0.007896238462954674
0.008460206579802657
0.00910758792226833
0.009762309391812097
0.010348309166506585
0.01090521297816815
0.011466569215368132
0.012030398440691276
0.012597275625158461
0.013168335330686343
0.013745705475865413
0.014332304645143928
0.014931736912445157
0.015548199424265196
0.016186403863083103
0.01685150260543145
0.017549015392789073
0.018284753241998266
0.019064731370054152
0.01989496964150382
0.020779727522727096
0.021696027276412396
0.022222880369160355
0.0009365810523927506
0.0010310213676709957
0.001217499359213518
0.0014365039823800154
0.0016852970501073207
0.0019647481765666178
0.002275534699735532
0.0026178226022087105
0.0029912214306127448
0.003394778137533574
0.003826993819672548
0.004285861284101804
0.004768921757610921
0.005273339416206244
0.005795995309845543
0.006333621215497009
0.006883021919918281
0.007441868047925081
0.00800993488340864
0.008604841737774434
0.009212172887740143
0.00981165594045108
0.01039605355990751
0.010974775425507345
0.011544514658652649
0.012112663667126527
0.012681571159034104
0.013253669060475402
0.013831690859407587
0.014418917795520986
0.015019193889446402
0.015636897526680564
0.016276890586324692
0.01694445794263579
0.017645240531215425
0.018385162161350457
0.019170343015982486
0.0200069014733369
0.020899148005978502
0.021824430211659973
0.022357064036773545
0.0009274920513956598
0.0010217865080370267
0.001208486574152503
0.0014282389589673026
0.0016782525755129833
0.0019593815719437563
0.0022722763024699967
0.0026170723598418536
0.0029933481354259693
0.003400122898654868
0.003835879999896776
0.004298615567264299
0.0047859155083956545
0.005295068174088551
0.005823233026268354
0.006367706862104148
0.0069264400245639375
0.007498622911581753
0.00808749366494825
0.008675164088405941
0.009237397179971065
0.00980321538920607
0.010393641261918166
0.01098032282910738
0.011559297049085485
0.012132101288536907
0.012702578721040204
0.013273974090516436
0.013849649461620987
0.014433280470616008
0.015028981593528322
0.015641336024370657
0.01627538184610304
0.016936573103451924
0.017630725949871938
0.018363953501342976
0.019142583809785722
0.019972958317360547
0.02085962944616742
0.02177991889029023
0.022309710518543874
0.0009116248134900696
0.0010059028334187523
0.001193034373492925
0.0014140036041644336
0.0016660242540001975
0.0019499140046491852
0.002266277021270845
0.0026151948424350427
0.00299618805270469
0.0034082185538643933
0.003849718237471161
0.004318645147406574
0.004812570206174339
0.00532879954590711
0.0058645366242992495
0.006417085847820171
0.006983952186383466
0.0075627945991235
0.00814616027320035
0.008724346768232579
0.009296866695041714
0.009867784240864942
0.0104425484871327
0.011022851177789538
0.011600084635504694
0.012172386814267319
0.012741073853612932
0.013308945488956435
0.013879357161953453
0.014456147632618231
0.015043630913103297
0.015646601283745818
0.01627031859222316
0.016920475954101587
0.017603152859572327
0.018324755357408677
0.019091936270533794
0.019911391569978776
0.020788044924910338
0.021699775923105995
0.02222539988583457
0.0008892172206404355
0.000983469685402091
0.001171248550307711
0.001393967650665783
0.0016488391296862164
0.0019366301052719873
0.0022578757449204347
0.002612576345650953
0.0030001619717373684
0.0034194970192896043
0.003868910113032792
0.004346249208702322
0.0048489612497963075
0.005374191180514407
0.005918883777012784
0.006479824673213861
0.007053530415290319
0.007635289273940932
0.008219533514761717
0.00880161461990279
0.00937918247281614
0.009953886302291682
0.010528012001805344
0.011101162980437004
0.011672130084139995
0.012238885616286372
0.012801660367487684
0.013362341432344339
0.013923927136283466
0.014490179231944917
0.015065494394359131
0.01565483979248509
0.016263710155611094
0.016898085261917873
0.017564381108144754
0.018269390864110436
0.019020205709665783
0.019824011829326083
0.02068629186428253
0.021585818904071324
0.022105558316470115
0.0008600960153693164
0.0009543467872165337
0.0011430133786059266
0.0013680437643396588
0.0016266408132436779
0.0019195014844836126
0.0022470679389810172
0.00260923008712106
0.00300529200683565
0.003433976197629504
0.0038934505710660657
0.00438137643058157
0.0048949733635838665
0.005431090691772581
0.005986261278429409
0.006556703685003137
0.007138181681134064
0.007726071875930545
0.008315736967154416
0.008903317608947914
0.009486720456871576
0.010065380402229455
0.010639474314216947
0.01120905037358155
0.011773436842314728
0.012332261559799693
0.012885852341149525
0.013435800428004177
0.01398482616368061
0.014536585494122367
0.015095516143709657
0.015666742046875026
0.016256006446312667
0.016869616911563207
0.017514391609366013
0.01819759984177968
0.01892688526608392
0.01971006919582869
0.02055338815344964
0.02143675629299389
0.021948600976373404
0.0008241082326944576
0.0009183923883388017
0.001108217246493864
0.0013361533141276938
0.0015993839175841426
0.0018985151271512118
0.0022338716198119536
0.0026052044007401696
0.0030116573886518863
0.0034517691971448308
0.003923494961815761
0.004424246026907435
0.004950943237564513
0.005500075099262479
0.006067749379875075
0.0066497255644532745
0.007241489764111303
0.007838423364382707
0.008436159031502029
0.009031059867017814
0.00962052478001508
0.010203029733504421
0.010777785534960138
0.01134431734255575
0.01190238279320371
0.012452049278899598
0.012994090900844562
0.01353018738240559
0.01406303365596944
0.014596284544954135
0.015134464611791045
0.015682883292128694
0.016247565893079994
0.01683519512912136
0.01745305669684403
0.01810898233075159
0.018811278504586366
0.019568539896197296
0.0203879156679803
0.021250710518631217
0.021752422831758746
0.000781149478527268
0.0008755112440185808
0.0010667865660884443
0.0012982503249062474
0.001567051931713405
0.0018736849534091268
0.002218333551974436
0.00260058454805359
0.0030193924005408653
0.0034730767567966725
0.0039593382767863245
0.004475291695356199
0.005017514142338392
0.005582105601480001
0.006164759566633483
0.006760856446842642
0.007365599174587803
0.00797422424887848
0.008582281778645463
0.009185922190399314
0.00978210624431129
0.01036864271627982
0.010944088351402375
0.011507610923879402
0.012058904987413204
0.012598263054652895
0.013126695905495683
0.01364608392048396
0.014159249648224077
0.01466997040499811
0.015182939436785704
0.015703710690970506
0.01623864316821388
0.016794849868153588
0.017380149850321294
0.018003019062213573
0.018672528693910517
0.01939817040928326
0.020188159506532143
0.021025481380485152
0.021514542656363184
0.0007312168222582478
0.000825698990996142
0.0010187217978617044
0.001254346579936991
0.0015296712193322757
0.0018450551479019788
0.0022005222441994674
0.002595475589360984
0.0030286584087141602
0.0034981452498230622
0.004001350900609436
0.004535058174694062
0.00509546576482653
0.005678257273155662
0.006278695175228667
0.006891746316538023
0.007512248996918274
0.008135122498820053
0.008755602978307062
0.009369468493746562
0.00997320415224761
0.010564082699199456
0.011140167095884668
0.0117002768123783
0.012243974124756288
0.012771586919439453
0.013284275721990334
0.013784102318899134
0.014274082287219329
0.014758200400306913
0.015241397176316247
0.015729537075955907
0.016229370904847554
0.016748498848575422
0.017295335548243564
0.017879074673709215
0.01850964226262981
0.01919753985085385
0.019952199662301107
0.02075859525312322
0.021232157467986932
0.0006744696374570884
0.0007690961439495566
0.0009641376489590866
0.0012045374196266848
0.001487321903629754
0.001812696174298305
0.0021805095257219223
0.0025899700479596792
0.0030395976875998063
0.003527205570983837
0.004049899637702298
0.004604100385462735
0.005185590786728654
0.005789594072507376
0.006410884799878471
0.007043936205959612
0.0076831033162695125
0.008322834445350404
0.008957893223568415
0.009583565001819658
0.010195822287303289
0.010791434230209325
0.011368023960327748
0.01192409325825704
0.012459036726393523
0.012973164132377833
0.013467731010122871
0.013944972264546949
0.014408125523882008
0.014861439035332446
0.015310163301284208
0.015760532759813536
0.016219743831496235
0.01669593460775227
0.017198167741566996
0.017736414663766104
0.018321530855763234
0.0189651255282656
0.019677987013606645
0.0204473976102113
0.02090224251776662
0.0006113005087620084
0.0007060494779798778
0.0009033069219995399
0.0011490267280598614
0.0014401436226577408
0.0017766915408098105
0.0021583393137892953
0.00258410025402423
0.003052271307203213
0.0035603987952100118
0.004105264030134045
0.004682895627258312
0.005288615164998708
0.005917121232553995
0.006562614570681676
0.007218963635932845
0.007879905094435802
0.0085392675365974
0.009191200832463525
0.009830390484227928
0.010452238500680524
0.011053000006653968
0.011629875168383852
0.01218106473575855
0.012705802054013527
0.013204372027111852
0.013678123893730649
0.014129478233495899
0.014561927816960429
0.014980031183277872
0.015389401078382329
0.015796691494251506
0.016209587966531727
0.016636804402451463
0.017088087508916674
0.01757422670844301
0.01810705922254557
0.018699376711264853
0.019363442535078337
0.020089173917171237
0.020521684143974005
0.0005424146952665171
0.0006371794854611951
0.000836705824869757
0.0010881487279452318
0.001388333544061803
0.0017371127638246256
0.0021339813138738497
0.0025777737148766555
0.003066580246835117
0.0035976883249396927
0.004167546446446798
0.004771761072618977
0.005405135920749599
0.006061760095390993
0.006735147166105057
0.007418422037479639
0.008104546502164767
0.008786568722964516
0.009457877742950574
0.010112443053156367
0.010745021957994132
0.011351323568804266
0.011928125869669041
0.012473349427078723
0.012986095503908264
0.013466658082236535
0.01391651814240448
0.014338326844391418
0.014735882848926936
0.01511410832073287
0.01547902825765669
0.015837757964763187
0.01619850273052111
0.01657057236863532
0.016964410925935744
0.017391638813780013
0.017865096733293055
0.018398801208432073
0.019006578860371378
0.019681304416525817
0.020087451966037
0.0004689143753866798
0.0005634502228002054
0.0007650571539095527
0.0010223830498852316
0.0013321333090704525
0.0016939793563691642
0.0021072666935463154
0.0025706886981949314
0.0030821668064657235
0.0036387548329827562
0.004236569972898664
0.004870765448823437
0.005535557984082628
0.006224318553529097
0.00692972845990831
0.0076439953769249615
0.008359116694423647
0.009067171346527144
0.009760617566496642
0.010432573730188332
0.011077062531451345
0.011689204957323994
0.01226535788533997
0.01280319648931082
0.013301748195465556
0.013761388389130024
0.014183809454993425
0.014571974379723074
0.014930065481620045
0.015263437304393633
0.01557858174402643
0.0158831118424399
0.01618576915202135
0.016496457268299732
0.01682630142924571
0.017187730633686015
0.01759457099873907
0.018062063693710172
0.01860564477625934
0.019221453180491434
0.019596811784039925
0.00039238085723059804
0.0004862349932281562
0.0006893657559651066
0.0009523584697894298
0.0012718011931907804
0.0016472009470080524
0.002077803174486957
0.0025622273140912554
0.003098293069287418
0.0036828698121761324
0.004311758560501669
0.004979627918042789
0.005680022636046667
0.006405456320785112
0.0071475907196367535
0.00789749383307904
0.008645959428100434
0.00938386287454671
0.010102524014192772
0.010794047725144064
0.011451617111750238
0.012069721630446008
0.012644311654082904
0.013172880035365816
0.013654478899739638
0.014089685147151684
0.014480530983894513
0.014830416352251198
0.01514401912293866
0.015427216944176647
0.01568703201501453
0.01593160757459077
0.016170221924624924
0.01641334314900139
0.01667272449404222
0.016961536395659515
0.01729452204336825
0.017688094148007195
0.018159290452186002
0.018707790384687166
0.01904757954312812
0.00031494229022066794
0.0004073671922154374
0.0006109381453557608
0.0008788398596316689
0.0012075667736452238
0.0015965004977360078
0.0020448691317394184
0.0025513254255014784
0.0031136950156798655
0.0037287457277698616
0.0043919972039975965
0.005097602694108418
0.005838329192064839
0.006605652060006441
0.007389967466167713
0.008180911794092386
0.008967763703624974
0.009739893954820457
0.010487222518607849
0.011200642915170412
0.011872379795668412
0.012496256318298551
0.013067860619812115
0.013584613334416282
0.014045748679223195
0.014452229103355283
0.014806617141859888
0.015112928876068084
0.015376491233677153
0.015603822157416443
0.015802548240212377
0.015981370556894813
0.016150085280522728
0.016319662675981582
0.016502385003179243
0.016712040148919142
0.016964158023800715
0.01727620458440329
0.017666750123870843
0.018139243887662884
0.018438412167969244
0.00023930833701319047
0.0003291602944209273
0.0005313755005748976
0.0008026942292112234
0.0011395687794621338
0.0015413223948663286
0.0020072908298357844
0.002536322334373977
0.0031264145024936718
0.003774364642853765
0.004475474407692763
0.00522335332548087
0.0060098572431831485
0.006825184937614028
0.0076581382353392196
0.008496530922896353
0.009327711646159002
0.01013915077402309
0.010919032929609116
0.01165679795048329
0.012343582781906405
0.012972532888623337
0.01353897102987602
0.014040429625962587
0.014476568043461962
0.01484900575960786
0.015161106615617691
0.015417748656834117
0.01562510992620059
0.015790494546916545
0.015922216710000898
0.01602955405968422
0.016122776885443717
0.016213255900417625
0.016313649233844634
0.016438168391329222
0.016602915652693746
0.01682621851584753
0.017128035595805932
0.01751577096438072
0.017769130904803608
0.00016874155920215957
0.0002543739773326864
0.00045252968765402093
0.0007248348857125885
0.0010677863773576827
0.0014807371919528327
0.001963310973447212
0.002514798533543104
0.0031336178822179714
0.0038167939649984685
0.004559515543629147
0.005354826426011095
0.006193502362075649
0.007064148325424509
0.007953526650936876
0.008847096330713108
0.009729713521720718
0.010586419053344637
0.011403226338306226
0.012167825266280949
0.012870133956638092
0.013502656428747001
0.014060634425629772
0.014542009510998564
0.014947232751857182
0.015278971326603705
0.015541764595789292
0.01574167826344936
0.015885996498892146
0.01598298167354107
0.016041720648962164
0.016072068074971795
0.01608469037969053
0.01609121031191606
0.016104450654566803
0.01613877688334722
0.01621054515538363
0.01633861320007267
0.01654415234513291
0.01683863360408853
0.017041036502793823
0.00010694059744563576
0.0001861001150277507
0.0003764071874666182
0.0006461704576288021
0.00099198867027778
0.0014133486138665035
0.0019104606097134736
0.002483420491743915
0.003131422043100521
0.0038520088285768877
0.004640424370590589
0.005489141292731968
0.006387643754440663
0.007322519329606767
0.008277882072771733
0.0092361020902758
0.010178768961898014
0.011087776352539722
0.011946394941679166
0.012740205690452623
0.013457793397372294
0.014091145452836466
0.01463574911841219
0.015090424013466724
0.01545695560077293
0.015739609204657876
0.015944602798115964
0.016079605814785184
0.016153314431414885
0.016175136183081282
0.016155001150540183
0.016103305092842517
0.01603098218460558
0.015949701252842067
0.01587217868579787
0.01581260476924623
0.01578718214090717
0.01581479665729979
0.015917299148408174
0.016110682474945123
0.016257307756018066
6.065407007484841e-05
0.000127534440665212
0.00030511666546572313
0.0005675994660636596
0.0009116544332035
0.0013372023948900922
0.0018454688307193204
0.00243783785549952
0.003114773279927447
0.0038747597969339656
0.004713364022916284
0.005622522045714488
0.006590170741115013
0.007600316219255174
0.00863358551358521
0.009668234594858117
0.010681505775763801
0.011651159061834514
0.01255696765371584
0.01338197683380948
0.014113377646895115
0.014742923815743679
0.01526690294363077
0.01568573877126118
0.016003341628383214
0.016226334337858268
0.016363269667275852
0.016423929064472355
0.01641876209878072
0.01635849746651208
0.016253934188582904
0.016115907012707233
0.015955412838325182
0.0157838827726252
0.015613587069447597
0.015458162068704092
0.01533325774659123
0.015257243958297681
0.01525183823397296
0.015336532159781821
0.015422799626787992
2.839719793816294e-05
8.18906257240829e-05
0.00024079510332736086
0.0004898320323866358
0.0008259772946928745
0.0012499734962322323
0.0017645423263391812
0.0023729996999555434
0.003077763123181762
0.003878880984321999
0.004772676446621572
0.005750669689798035
0.006798957624472951
0.00789821576696976
0.009024417659821567
0.010150253148488985
0.011247086214215257
0.01228717285968945
0.013245794290105447
0.014102982702594765
0.014844612611601287
0.015462773621757431
0.01595547881060322
0.01632586714921703
0.016581104910773768
0.0167311908379433
0.016787830658555315
0.01676349494459735
0.01667071986529346
0.0165216679705964
0.016327936472178055
0.016100585863297608
0.01585035766218518
0.015588054443043316
0.015325063557999652
0.015074016332384765
0.014849573306375562
0.0146693545385713
0.014554395969975955
0.01452700552794973
0.014548523825437304
0.0007559215739429547
0.0011765849486163904
0.00232129630845363
0.004859535097920335
0.005916070075566549
0.00825663737047265
0.009486715766286015
0.011897043699706266
0.013007183563161816
0.014891981099574932
0.015629504968850034
0.016219374232560455
0.01666283296051597
0.016967187890372576
0.017144093633112492
0.01720783831019884
0.015708240848218702
0.015362802722888124
0.014087645202798336
0.01387232195217335
0.013700543609528626
1.2135549752806097e-05
5.59631207714431e-05
0.0001956479846271682
0.000429575681312082
0.0016964144496278632
0.003056207435678442
0.0039032053235147084
0.007056371259791036
0.010712154786511338
0.014013039457603415
0.017173845638703587
0.01705751502765806
0.016873440521239604
0.01663499155925558
0.016354207536285283
0.016041947343457756
0.015015687168674649
0.01467808064729561
0.014363252265639885
0.013740889559198742
1.0042687387357099e-05
4.233843477467975e-05
0.00016208152889676792
0.0003787906480713944
0.0006904021050116441
0.001099654784198459
0.0016128765296145645
0.002237978458717824
0.0029821439719666027
0.003849458317265728
0.004838580543037709
0.005940742576362984
0.007138439759522323
0.008405196107610285
0.009706673346596698
0.011003145183381045
0.012253031889484152
0.013416892593381436
0.014461129346430608
0.015360732314197326
0.01610066420505876
0.016675829303371525
0.017089875987756336
0.01735325584081241
0.017480995886613497
0.017490565316223138
0.017400091711404754
0.017227049379415743
0.016987437335936124
0.016695396719500585
0.016363186126148257
0.016001430222503856
0.015619570268435181
0.01522646745706678
0.014831135128488108
0.014443596395085443
0.01407589484838328
0.013743251757502323
0.013465469093145057
0.013266923281271738
0.013188174071826429
1.4962340800652828e-05
3.57797480365302e-05
0.00013694526766424523
0.00033715906263205185
0.0006345281228626474
0.0010325414921966561
0.0015391923914072718
0.002164592192175085
0.002918362688671492
0.0038068532017075285
0.004830336127659513
0.00598049015856956
0.007238644175487296
0.008575304633778268
0.009951369822466685
0.011321115775371048
0.012636586900703937
0.013852596373567335
0.014931326887878562
0.01584563123915228
0.01658052128323808
0.0171328288138314
0.017509431374082562
0.01772464565945332
0.017797396229349022
0.01774863207240208
0.017599274004299417
0.0173687977064587
0.017074427599510642
0.016730844052920652
0.01635028172650453
0.015942905177856598
0.015517373717614497
0.015081539320851461
0.014643251387348042
0.014211274368739698
0.013796315477418266
0.01341229468066092
0.013077302128947187
0.01281896842260236
0.01270756270166348
2.4829032099688165e-05
3.410904427456508e-05
0.00011598246696189552
0.00029842302790303055
0.0005799279905809341