# vtk DataFile Version 2.0
time_10.vtk
ASCII
DATASET UNSTRUCTURED_GRID
POINTS   4141  float 
0.00010429957484838138        1.0668076610467995e-17        0.0                           
0.24999999999999975           9.911325079937728e-05         0.0                           
0.5000961659492262            -1.9997654377917046e-17       0.0                           
0.75                          8.946293477336622e-05         0.0                           
1.0000856740030806            -3.414278625672647e-17        0.0                           
1.25                          7.715838269375224e-05         0.0                           
1.5000724151832674            -5.85402986323467e-17         0.0                           
1.75                          6.19389544824617e-05          0.0                           
2.000056207107413             -3.025453763657437e-17        0.0                           
2.25                          4.3780279252450005e-05        0.0                           
2.50003710356566              6.774323674060675e-16         0.0                           
2.75                          2.2895134600259463e-05        0.0                           
3.000015411648994             -6.889566685864901e-17        0.0                           
3.25                          -8.677633077962958e-18        0.0                           
3.49999129523394              -4.158753761114366e-17        0.0                           
3.75                          -2.6338013264730684e-05       0.0                           
3.999964625806772             -1.5570361322446238e-16       0.0                           
4.25                          -5.392486401277371e-05        0.0                           
4.49993656987161              -3.8494725291770237e-17       0.0                           
4.749999999999999             -8.287650700695165e-05        0.0                           
4.999907187488769             -3.130911647963338e-18        0.0                           
5.25                          -0.00011311395863350321       0.0                           
5.499876511591234             4.51922031163214e-18          0.0                           
5.75                          -0.00014472689117560764       0.0                           
5.999844384485136             1.37140063229538e-16          0.0                           
6.25                          -0.00017801096980905168       0.0                           
6.499810444003393             4.710676182926666e-17         0.0                           
6.75                          0.00010396648859527341        0.0                           
7.000101487947651             7.227044705146833e-06         0.0                           
7.250007836742319             9.584317895902227e-05         0.0                           
7.500092634539369             9.15336542175625e-06          0.0                           
7.750009853714714             8.535501679213783e-05         0.0                           
8.000081255994964             1.1319268915441013e-05        0.0                           
8.250012076150716             7.20905484578406e-05          0.0                           
8.50006701345628              1.3616895155843215e-05        0.0                           
8.750014392437933             5.586594349888115e-05         0.0                           
9.000049802202726             1.5934251161458348e-05        0.0                           
9.250016693316656             3.673133511891539e-05         0.0                           
9.500029746109607             1.817132271902594e-05         0.0                           
9.750018883971634             1.4941411699012306e-05        0.0                           
10.00000712954636             2.024439861330467e-05         0.0                           
2.0998924043461327e-05        0.2999906593652519            0.0                           
0.24998203061554625           0.3000223500556577            0.0                           
0.5000229518918525            0.2999641588824395            0.0                           
0.7499549618922068            0.30002412221190516           0.0                           
1.0000246928708945            0.2999360949950108            0.0                           
1.24992643865474              0.3000258151062818            0.0                           
1.5000263723800735            0.2999067001074495            0.0                           
1.749896619200538             0.3000274960898436            0.0                           
2.000028069892082             0.2998760185144885            0.0                           
2.249865484573249             0.3000292603784925            0.0                           
2.5000298845586255            0.2998438942803812            0.0                           
2.749832808280928             0.3000312083733521            0.0                           
3.0000319142902945            0.2998099636116173            0.0                           
3.249798162935432             0.30003342806642674           0.0                           
3.500013284068421             0.3001004999708714            0.0                           
3.7500978101521842            0.3000156542350119            0.0                           
4.000016942981897             0.3000916725424994            0.0                           
4.250088185582166             0.30001969695998437           0.0                           
4.500021147212763             0.30008029676311687           0.0                           
4.750075872030473             0.3000241530648906            0.0                           
5.0000256915643275            0.3000660271902821            0.0                           
5.250060602140768             0.3000287975040392            0.0                           
5.500030348905026             0.3000487556422419            0.0                           
5.750042345393524             0.3000334121117182            0.0                           
6.000034911330472             0.30002859342749305           0.0                           
6.250021270902806             0.30003782192261513           0.0                           
6.500039232139439             0.3000057633754632            0.0                           
6.74999762043265              0.30004202630464477           0.0                           
7.000043380623792             0.29998062957786126           0.0                           
7.249971801158156             0.3000459009717164            0.0                           
7.500047093169254             0.2999535675549671            0.0                           
7.749944196851605             0.3000493999077794            0.0                           
8.000050526056944             0.2999250012639549            0.0                           
8.249915189156452             0.30005275404367443           0.0                           
8.500053869426418             0.2998951488752311            0.0                           
8.749884917757827             0.30005613978238915           0.0                           
9.000057310125067             0.2998640055566742            0.0                           
9.249853304960196             0.30005975947077423           0.0                           
9.50006105314979              0.29983134593843214           0.0                           
9.74982005251753              0.30006381184910635           0.0                           
10.000065288367272            0.29979673416965136           0.0                           
0.00010129895666142222        0.6000198692926801            0.0                           
0.2500215956198035            0.6000961799806805            0.0                           
0.5000932593461809            0.6000253716575218            0.0                           
0.7500274039125803            0.600086588236557             0.0                           
1.0000828024683386            0.6000317023189616            0.0                           
1.2500339438702384            0.6000742642027677            0.0                           
1.5000694943824207            0.6000385471584581            0.0                           
1.7500408830681642            0.6000589330557604            0.0                           
2.000053142219859             0.6000455617458527            0.0                           
2.2500478819486354            0.6000405614345831            0.0                           
2.5000337863650985            0.6000524358629616            0.0                           
2.7500546551497136            0.6000193138964455            0.0                           
3.000011637892807             0.6000589646882372            0.0                           
3.2500610575587463            0.5999954909632607            0.0                           
3.4999870602349157            0.6000650964572827            0.0                           
3.7500670193800705            0.5999695489859845            0.0                           
3.9999604936915443            0.6000706714092564            0.0                           
4.250072421056897             0.5999418589245825            0.0                           
4.499932305973906             0.6000758197383983            0.0                           
4.750077488168863             0.5999127736942331            0.0                           
4.999902803758936             0.6000808150012064            0.0                           
5.25008249571411              0.599882458405845             0.0                           
5.499872075108937             0.6000859501171417            0.0                           
5.750087747439552             0.599850845577953             0.0                           
5.9998399740271315            0.6000915396137327            0.0                           
6.250093555752279             0.5998176337898795            0.0                           
[...]
POINT_DATA  4141
SCALARS Con float 1
LOOKUP_TABLE default
0.0014212868442741722
0.001555869889820538
0.0018235964603314893
0.0021375768790877657
0.0024935237729745907
0.0028926506600175927
0.003335915127977271
0.0038235595502090114
0.004355046288895069
0.0049290501163555085
0.005543482224458894
0.006195541479866802
0.006881787459845944
0.0075982262543613935
0.00834039529010196
0.009103422306924104
0.009882063460908414
0.010670639363957403
0.011464983595806923
0.012271904169370273
0.013176963040911087
0.01409405255761637
0.014933726369862454
0.01573550624483608
0.016543388904341653
0.017355196934074384
0.018172099427680662
0.018995931078204808
0.019829801691826163
0.020677842025694525
0.02154506748811715
0.022437252556590487
0.023360820266171256
0.024322736030615775
0.025330401108943388
0.026391542308670156
0.027514088789252333
0.028705905362707722
0.029972425049573405
0.03128131653623311
0.032032365413446715
0.0014500255812594253
0.0015880001525726548
0.001861373220179897
0.0021814560846332826
0.002543976942457536
0.0029500401224143336
0.003400492429975001
0.0038954584487413974
0.004434281553617801
0.005015521655384136
0.005636985659493124
0.00629578730875868
0.006988433599748559
0.007710935226788744
0.00845894169053112
0.009227925478006676
0.010013464431420076
0.010812250802530867
0.011623294660116532
0.012468871492838136
0.01333013071627775
0.014180612231784327
0.015013152418414017
0.015841769315742344
0.016659833297335235
0.01747694482000891
0.018296341857713637
0.019121476516520828
0.019956221993494436
0.020805176438018304
0.021673671285667676
0.02256772447620214
0.02349396386119626
0.02445953734000787
0.025472014081280112
0.026539277716668242
0.027669403652442102
0.028870393476535267
0.03014774125460237
0.031469531689837446
0.03222882270331965
0.0014367230087012962
0.001574505310635981
0.001848236114975849
0.0021694448422106415
0.0025337782550487
0.002942315563702671
0.003395860530846642
0.0038944885497321793
0.004437491130995622
0.005023379119345441
0.0056499212736207585
0.006314217866967666
0.007012811973395356
0.0077418464443604175
0.008497290428154048
0.009275283582409172
0.0100727902484945
0.010888284197352176
0.011725492642182207
0.012561019385428005
0.013367636539695861
0.014179960992529614
0.015020726198825341
0.015857338148955666
0.016685970611798145
0.017508104109954816
0.01832871999662455
0.01915219247033404
0.01998314884573052
0.020826671697745932
0.021688435664782013
0.022574728720883463
0.023492420034894858
0.024448896281797104
0.025451978886414754
0.02650982697941622
0.027630819254163032
0.028823279094483963
0.030093027397003636
0.03140799886083964
0.032163307972276164
0.0014134486457931237
0.0015512336307279542
0.001825647866063954
0.002148685091304378
0.0025159941056670625
0.0029285962240652645
0.0033872219733893814
0.0038918605373810273
0.004441709963166183
0.005035186026185098
0.00566996796534719
0.006343081647981919
0.007051023168819255
0.00778992813876961
0.00855579043859555
0.009344732218928647
0.010153136870877464
0.010977643709945238
0.011808484074491577
0.01263404906647228
0.013453253994838228
0.014270817957596481
0.015093310556630995
0.015922344139537022
0.016748032225727152
0.017568569217582375
0.018385804310221875
0.019203567452926222
0.020026470899583305
0.020859804929863657
0.021709507649588643
0.022582154834841446
0.023484925974789777
0.024425548322046766
0.025412222180372816
0.026453529262501062
0.02755831455817535
0.028735402027759132
0.029991119673290396
0.031294135906499314
0.03204364014542729
0.001380551991517788
0.001518337898154861
0.0017937766547383995
0.002119449372676825
0.0024909943313813675
0.0029093525890624564
0.003375146329252776
0.0038882370987943795
0.004447680395641828
0.00505173806195789
0.005697926190698476
0.006383097644136802
0.0071035576606468965
0.007855205201121524
0.0086336787683315
0.009434426380883371
0.010252595156292036
0.011081852346760263
0.011915031628978119
0.012746057188092179
0.013571886717834974
0.014394243089876052
0.015215648813252505
0.016035693262025807
0.016853038986839
0.01766557464281042
0.018473986062789875
0.019281014291869222
0.020090856037755248
0.020908729114734615
0.021740703918153338
0.022593609943179393
0.02347496788463376
0.024392921142069666
0.02535615808623037
0.026373819860358014
0.027455380195237595
0.028610359275289123
0.029845870433923134
0.03113186598783061
0.03187328420254457
0.0013377445238123688
0.0014755808719511148
0.0017524273079949962
0.0020815914601536294
0.0024586874388040393
0.002884545546511246
0.0033596428191857326
0.00388366912815844
0.004455484852286261
0.0050731337120779344
0.005733887908401924
0.0064343226994449014
0.007170414692128687
0.007937650250672343
0.008731113220173866
0.009545510513740805
0.010375021327122922
0.01121343036476028
0.012054574657648658
0.012893372912187395
0.013726927505093394
0.014554280586648047
0.015375481313168137
0.01619055090441736
0.016998835767160495
0.017800160370195463
0.01859531633445073
0.01938672437360663
0.02017827022703445
0.020975075853177212
0.021783304193825615
0.022610031144312807
0.023463149797738933
0.02435128720326699
0.025283720472982076
0.02627028336649993
0.027321248609767965
0.028447051004015955
0.02965589334754707
0.030919345734372834
0.031649850523591566
0.0012847526233145338
0.0014227093184310073
0.0017013996642551406
0.0020349699956578866
0.002418992805277688
0.0028541555450618586
0.0033407524217066832
0.00387825820974543
0.004465287054591787
0.005099603123890918
0.0057781602481340785
0.006497167184714659
0.007252172618968421
0.008038158334881758
0.00884962592254641
0.009680661034213224
0.010525054623643918
0.011376531420337286
0.012229213880718206
0.013078195836623162
0.01391992477912324
0.014752244800504402
0.01557400864707944
0.016384600885592942
0.017183837836753705
0.017972062242472386
0.018750598233246873
0.019521986463442168
0.020290112383747443
0.02106013616296144
0.02183837858045797
0.02263220843096207
0.023449946076554967
0.024300777040476198
0.02519466784407367
0.026142276083321557
0.02715484023691582
0.028243917775248074
0.029419026784106253
0.030653683164154275
0.031370106810542565
0.001221358116168002
0.001359523999394881
0.0016405378785735345
0.001979483275681256
0.0023718670820633246
0.002818200231797126
0.0033185580447768416
0.003872160716735089
0.004477331006507308
0.005131500459477386
0.005831242480815028
0.0065723303923141884
0.007349817444845305
0.00815813424572133
0.008991200512807765
0.009842566436507315
0.01070560503344697
0.011573795992694837
0.012441082682769755
0.013302233955237388
0.014153101940668123
0.014990680407466407
0.015812999704467222
0.016618977721332227
0.0174083286759557
0.018181643821731187
0.018940530071380874
0.019687783753370852
0.020427474125323968
0.021164954966545364
0.021906812491196852
0.022660790780310417
0.023435713480310313
0.02424140801591117
0.02508863057999496
0.025988986717785722
0.02695483377632185
0.027999033073543542
0.029132635224050442
0.030331507297403915
0.031030259439879856
0.0011474741274995859
0.0012859435548202146
0.0015697829341329123
0.0019151061972136982
0.0023173253404874623
0.002776740574605836
0.0032931762498790746
0.003865565721484821
0.0044919046459377535
0.0051692499089735135
0.005893744888461972
0.0066606719736844585
0.0074645332987244815
0.00829916032302085
0.009157856036296562
0.010033576561551932
0.010919163034648073
0.011807621392708065
0.012692429625520247
0.013567824801252626
0.014429015776421094
0.01527229279961831
0.01609504520616653
0.01689573401323723
0.01767388286115769
0.018430106957084583
0.019166189594185642
0.019885160220285802
0.020591353373708578
0.02129042375653532
0.021989325650894474
0.02269626816157739
0.023420660773350692
0.024173056645075002
0.02496509517798078
0.025809440748810506
0.026719704148316717
0.027710216185480887
0.028793777491423696
0.0299490407485201
0.03062603626975748
0.0010632335414913214
0.001202083276867352
0.0014892318020228571
0.001841928985197626
0.0022554585960741255
0.0027298773682961743
0.0032647336093332446
0.0038586523248008344
0.004509278827234908
0.005213265620630021
0.005966286645213669
0.0067630832591765565
0.007597546473040293
0.008462839154283312
0.00935156116856169
0.010255959594482611
0.01116818126537846
0.012080556774710259
0.012985892430677028
0.013877738852416714
0.014750606444781735
0.015600112026997954
0.01642306143104841
0.017217490672533517
0.017982690657150465
0.018719236888323037
0.01942902555472226
0.020115311280906278
0.020782732287777397
0.021437316944116814
0.02208647024220011
0.02273894683696689
0.023404817535812847
0.02409543501634558
0.02482340026425547
0.025602527141906
0.02644779194387362
0.027375140138787002
0.028399325459250606
0.02950224272303524
0.030152840621432205
0.0009690935307091226
0.0011083459006255446
0.001399202928965493
0.0017601955177558696
0.0021864445510650777
0.0026777349143523193
0.0032333250051907176
0.003851525186051735
0.004529623319320955
0.0052638517762718575
0.006049384344426313
0.006880371329330243
0.00775002059094004
0.008650729698423756
0.009574270989392033
0.01051202675303525
0.011455265704109275
0.0123954444801095
0.013324511614237217
0.014235188687484001
0.015121207183274829
0.015977488941786452
0.016800270342447212
0.017587179895228948
0.018337284114199118
0.01905111413689129
0.01973068181041699
0.02037948710348606
0.021002517224697856
0.021606236788265582
0.022198571385186928
0.02278888857960547
0.023387981258006178
0.024008056645035483
0.024662731695891203
0.025367031711211484
0.02613737882552975
0.026991446225618297
0.02794611636066009
0.02898699313970192
0.029605953932648435
0.0008659544957844415
0.0010055229726335345
0.0013003051360182204
0.0016703378487774652
0.0021105475264854953
0.002620427661937336
0.0031989498814215243
0.0038441249663791715
0.00455289760945246
0.0053210815096898
0.006143328736343127
0.007013146289391314
0.007922971112253154
0.008864310222031817
0.009827946599969158
0.010804204570480676
0.011783261033373103
0.01275548242605329
0.013711763038785317
0.014643840051798114
0.0155445647768787
0.016408117374431347
0.017230161369276922
0.018007942546133162
0.01874034167237759
0.0194278926834009
0.020072776946276932
0.020678802482084698
0.021251375254095973
0.021797468592790484
0.022325596488924185
0.0228457964153374
0.023369626088342445
0.023910176840708956
0.024482103250085162
0.025101664954981034
0.025786766639429977
0.026556876416249993
0.027431137998451354
0.028399328216640603
0.028980797827482797
0.0007552888092766155
0.0008949020761233879
0.0011935050184339422
0.0015730017601674883
0.002028102416750218
0.0025580046420899346
0.003161421424002187
0.003836108807074737
0.004578711589515222
0.005384649040355904
0.006248041628900218
0.007161697788307545
0.008117176582584276
0.009104935133600982
0.010114560773426194
0.011135078230484539
0.012155313188520365
0.013164286584874693
0.01415161044506153
0.015107856813389282
0.016024876068243828
0.016896048976441782
0.01771646590346211
0.01848303532256111
0.019194530344624827
0.01985158612463765
0.020456662757774267
0.02101398802870358
0.021529493498607815
0.02201075554770996
0.02246695150617326
0.02290883881897085
0.023348763088425248
0.023800697717654785
0.024280314405442347
0.02480507919354845
0.02539435893146995
0.026069422794446552
0.02685174826560759
0.02773572754906873
0.02827325735539069
0.000639270341604678
0.0007783711143769917
0.0010801849745731766
0.0014690565092049092
0.0019394767743190445
0.002490366696890983
0.0031202440040235617
0.003826695975702137
0.004606150707000715
0.005453688706700952
0.0063629053686553765
0.00732585194062325
0.008333077754526397
0.009373785882690803
0.010436101705851323
0.011507440587966399
0.012574949024823453
0.013625985049492171
0.014648599833000523
0.015631983834120452
0.01656684726338579
0.01744571440020772
0.018263122725720636
0.019015728760885035
0.01970233156864522
0.020323831088764375
0.020883141852481003
0.021385083335753386
0.021836267029079405
0.02224499789018337
0.022621204600416257
0.022976409812210493
0.0233237478125083
0.023678033448387096
0.024055881842475525
0.024475872941153748
0.02495874284701351
0.025527491629356372
0.026205925326337715
0.026993450748984977
0.02748006571505787
0.0005208878539031028
0.0006585049089084668
0.0009621802772388865
0.0013595804693634966
0.0018450062668492265
0.00241715387365203
0.0030744569767828926
0.003814476391754834
0.004633562471012979
0.005526557382250476
0.006486561688450543
0.007504807116973788
0.00857066772526146
0.009671826463937746
0.01079459620621861
0.011924375772181169
0.013046205008482765
0.014145371230321996
0.015208014398829198
0.01622168096544899
0.01717578547255915
0.01806195290044822
0.01887423065398004
0.019609174334835056
0.02026582395218356
0.020845595979276346
0.021352120968265872
0.02179105735748209
0.022169909599977975
0.02249787492574712
0.022785737671293934
0.02304582528740706
0.023292034899205727
0.023539935332640326
0.023806945394159732
0.02411258386965082
0.024478772949515667
0.02493007911100463
0.025492542717365035
0.026170916783026407
0.02659924327547409
0.0004040165098175869
0.0005386115411043536
0.0008417793374246518
0.0012458159513233315
0.0017449032491417672
0.0023376068018061786
0.0030224488899396724
0.0037971843448453405
0.004658305866562424
0.005600581896171836
0.006616682782115621
0.007696954519566361
0.0088293842952514
0.009999782283982015
0.011192178864208178
0.012389410018445741
0.013573839252278393
0.01472814748817077
0.015836115219257815
0.016883325592563718
0.017857731487072735
0.01875005076505929
0.019553977709858544
0.020266220787915016
0.020886394620569185
0.02141680532818169
0.021862173385731445
0.02222933737102946
0.02252697719090419
0.02276538819263192
0.022956329473777397
0.02311296202585197
0.023249885876973075
0.023383280668324943
0.02353115112668836
0.023713677713818174
0.02395366209488628
0.024276964895846742
0.024711658972532375
0.025268110870141653
0.025630582167737226
0.0002934039864892506
0.0004227050022692285
0.0007216716728406811
0.0011290905768089924
0.001639151773654189
0.002250417019682043
0.0029617513073928823
0.003771446749550052
0.004676474128264157
0.0056717824561885325
0.006749726510391407
0.00789969810021906
0.009108024325048312
0.010358169460297696
0.011631242306861557
0.012906770989169746
0.01416367027371895
0.01538129968381501
0.01654050017025416
0.01762450461202331
0.018619641085734037
0.01951578174597272
0.02030652727891355
0.020989150121192873
0.021564344498525678
0.022035845349074185
0.022409981987450762
0.022695227869252918
0.022901797599171804
0.023041330054907286
0.023126683420729273
0.02317185717067507
0.023192047204116092
0.023203835080553733
0.023225510517030017
0.023277527939595005
0.02338310779798507
0.02356892582308931
0.023864837279457905
0.024286992903265935
0.024576116320835836
0.00019453672852719428
0.0003153662260855831
0.0006048191537682174
0.0010107431561293832
0.0015274235506613609
0.002153571105677765
0.002888826034843318
0.003732530031280581
0.004682618148855
0.00573459849154937
0.006880700214475495
0.008109298559773716
0.00940470902370094
0.010747411584567396
0.012114715035664015
0.013481809935300971
0.014823099683274303
0.016113655182300013
0.017330621376225513
0.018454417881676854
0.019469615737199658
0.020365429795063877
0.021135825122048802
0.02177928718486035
0.022298339462644062
0.022698908160710858
0.02298963227618034
0.023181204458709786
0.023285808222577375
0.023316695737403446
0.023287930912110195
0.023214307160643793
0.02311143871382257
0.022996018728348736
0.02288623584516739
0.02280234556925687
0.02276739604178402
0.022808144414318485
0.022955450704046643
0.023231911095143123
0.023440698760303455
0.00011614229518779313
0.0002214331937398333
0.0004943935270608755
0.0008921153675035752
0.0014089402334463742
0.002044183348017295
0.002798892690433168
0.0036741488681287164
0.004669534460325704
0.005781672380414371
0.007002979871029298
0.008320783697282227
0.00971694491029272
0.011168097467280685
0.012646532550386228
0.014121661991202813
0.015561895510330137
0.016936690552352543
0.018218504650053986
0.019384404505114368
0.02041715873014514
0.02130573841244776
0.022045249118954995
0.022636395099764412
0.023084623237364498
0.023399106049256872
0.023591710049727495
0.023676064708524916
0.02366681082633414
0.023579071780852178
0.02342816280391807
0.02322953378969789
0.022998930633922957
0.02275275606057331
0.022508613054149335
0.022286015684122206
0.022107265261888127
0.02199840598822086
0.02199010556515302
0.02210991203724637
0.022231747351369527
5.9031468951727586e-05
0.0001459487197990637
0.0003936928200577874
0.0007742854109152204
0.0012824548682166426
0.001918739992100678
0.002686307523370376
0.0035889082331298392
0.004628728088537163
0.005804334211731502
0.007108852695235673
0.00852860957635613
0.010042466756312285
0.011622043536815035
0.013232904311757757
0.014836634842747816
0.016393554969166987
0.017865681276198964
0.01921949784373155
0.020428143108467505
0.021472753138177217
0.022342878945557774
0.02303606058295263
0.023556761186492862
0.023914917973396108
0.02412436599689257
0.02420134497557617
0.024163237414378935
0.024027620080799162
0.023811657013842
0.02353182341660694
0.02320392881181466
0.022843400689414848
0.02246579373396036
0.022087499389916738
0.02172664348010642
0.021404156431319512
0.0211450428545361
0.02097897300757707
0.020937408251535665
0.020966038226208263
0.0011799383916731236
0.0018147260192243097
0.00352471799728393
0.00725839679502262
0.00879454215532302
0.012167553782824856
0.013926010907188074
0.017348614347312656
0.018916490319996964
0.02156911340754311
0.02260453666296878
0.02343168346702984
0.024052632410663567
0.024477628092782287
0.024722816330670857
0.02480797530009349
0.022634057098502535
0.022136183059951967
0.02030113194866467
0.019990783958291132
0.019739170330599198
2.8194410229722697e-05
0.00010096549595520423
0.0003225234305051409
0.0006832821104273703
0.0025938723897887903
0.004612890494958137
0.005859464741036076
0.010442635695796771
0.015669577684042344
0.020333389772803547
0.024754517963783404
0.024583927358170676
0.024316685748128352
0.02397168420592498
0.023566056287241795
0.02311536255656696
0.02163626709880723
0.02115040722597667
0.020697578984923873
0.019799616412048394
1.9578567007861576e-05
7.537382342950108e-05
0.00026867874309442926
0.0006054523050984271
0.0010820938136649073
0.0017021623664836383
0.002474063694364401
0.0034080409638673624
0.004512781214934397
0.00579203919073889
0.007241451930428717
0.008845966561585341
0.010578371167462125
0.012399393727278408
0.014259631043537863
0.01610321694157358
0.017872726954867323
0.019514485395423987
0.02098332601350868
0.022246007359291983
0.023282841883182435
0.02408752124648002
0.024665473710377844
0.025031286942304557
0.02520576465481453
0.025213096194593294
0.02507846735084301
0.024826279480540232
0.024479011449027165
0.02405666949824195
0.023576725246574646
0.023054433320537433
0.0225034341939663
0.021936575041354243
0.021366914077890105
0.020808900830337432
0.020279768429698704
0.01980111955006748
0.019400851779965856
0.019113088923021087
0.018997380034742203
2.206152911062081e-05
6.131955771636105e-05
0.00022805665172532746
0.000541651403607572
0.000998808028950602
0.0016042638409591043
0.0023689020302566153
0.0033061380129119156
0.004428062973275693
0.0057414423816802805
0.007243845891594566
0.008920378131548435
0.010741661082921244
0.012663715884474042
0.01463015955426503
0.01657666780482248
0.018437079046102645
0.02015003384571547
0.021664867617083472
0.022945688714195295
0.02397308899777931
0.024743533401183654
0.025266948965852843
0.025563269289382587
0.025658690871586638
0.025582237110123036
0.025362998131005243
0.02502819531017533
0.024602053395264997
0.02410536467086893
0.023555591108943036
0.02296735573066756
0.022353204571475768
0.021724561042922124
0.021092833637313752
0.02047068212034025
0.019873432003209422
0.01932082203229069
0.01883826986525613
0.018464612354073064
0.018302160173795292
3.251904144548511e-05
5.4996349284851354e-05
0.00019384557211405226
0.0004821477857796737
0.0009172708183363963
0.0015052656238165232
0.002259781531641958
0.0031979054109947786
0.004335736346647926
0.005683706421242418