# vtk DataFile Version 2.0
time_10.vtk
ASCII
DATASET UNSTRUCTURED_GRID
POINTS   4141  float 
2.5098499132218432e-05        -1.9835468707876912e-17       0.0                           
0.24999999999999986           2.3739236557817833e-05        0.0                           
0.5000229840717717            -8.782103596933505e-17        0.0                           
0.75                          2.1298249619904162e-05        0.0                           
1.0000203594741384            6.302491667021683e-16         0.0                           
1.25                          1.827478781910498e-05         0.0                           
1.5000171248212255            2.1046995321954584e-18        0.0                           
1.75                          1.4604929442987937e-05        0.0                           
2.000013235271928             7.23851342563125e-18          0.0                           
2.25                          1.0282417811074228e-05        0.0                           
2.50000870363785              -1.3329534765374965e-18       0.0                           
2.75                          5.358488958387062e-06         0.0                           
3.000003603383378             -3.890715219295502e-18        0.0                           
3.25                          1.1754856089691373e-17        0.0                           
3.499997981140039             2.0744022784212652e-16        0.0                           
3.75                          -6.096161480112771e-06        0.0                           
3.9999918218720425            1.0494915993093007e-15        0.0                           
4.25                          -1.2435214512598308e-05       0.0                           
4.49998539252428              3.2572568257915347e-16        0.0                           
4.75                          -1.903238602213567e-05        0.0                           
4.999978716650279             -5.1845267793862744e-18       0.0                           
5.25                          -2.5862174600592733e-05       0.0                           
5.499971808154303             2.875734353448201e-16         0.0                           
5.75                          -3.294117435385462e-05        0.0                           
5.9999646333906735            1.2757895643417973e-16        0.0                           
6.25                          -4.033821752592862e-05        0.0                           
6.499957106198521             -4.7298276372250805e-17       0.0                           
6.75                          2.5029384620261544e-05        0.0                           
7.000024374089156             1.8947622706968612e-06        0.0                           
7.250002023250053             2.291746467136e-05            0.0                           
7.500022105796403             2.3039564570161324e-06        0.0                           
7.750002454586966             2.0293841783950806e-05        0.0                           
8.000019286672712             2.771738405833303e-06         0.0                           
8.250002936228608             1.7057966790545908e-05        0.0                           
8.500015833804694             3.2718280998114005e-06        0.0                           
8.7500034408835               1.3164701180143746e-05        0.0                           
9.00001172138071              3.7766377202614325e-06        0.0                           
9.25000394154137              8.626116050279624e-06         0.0                           
9.50000697951102              4.261308498752145e-06         0.0                           
9.75000441461441              3.504446047420993e-06         0.0                           
10.000001678485436            4.704714009995181e-06         0.0                           
4.864891582429559e-06         0.29999784600903445           0.0                           
0.24999584698976965           0.30000514796229494           0.0                           
0.5000052724205908            0.29999172355853676           0.0                           
0.749989610110425             0.3000055117554825            0.0                           
1.0000056271123727            0.2999852925755124            0.0                           
1.2499830922006414            0.30000585163013693           0.0                           
1.5000059621926967            0.2999786141228515            0.0                           
1.7499763371471158            0.30000618411432173           0.0                           
2.000006297332167             0.29997170449359956           0.0                           
2.249969345708416             0.3000065331686811            0.0                           
2.5000066577635707            0.2999645304126076            0.0                           
2.7499620668115754            0.3000069250774686            0.0                           
3.0000070695528356            0.29995700545555887           0.0                           
3.249954397227917             0.30000738390020587           0.0                           
3.5000035445787323            0.3000241694769704            0.0                           
3.7500234698738253            0.30000404176605205           0.0                           
4.000004315632061             0.3000219075444802            0.0                           
4.250021035273557             0.30000490647073014           0.0                           
4.500005219815869             0.3000190893360478            0.0                           
4.750018010076036             0.3000058723303018            0.0                           
5.000006207311363             0.3000156304694149            0.0                           
5.250014328912437             0.3000068843200058            0.0                           
5.500007222369617             0.3000115044793763            0.0                           
5.750009984370214             0.3000078884545032            0.0                           
6.000008213315381             0.3000067389518423            0.0                           
6.250005018529932             0.3000088406505072            0.0                           
6.5000091424616775            0.3000013909358049            0.0                           
6.7499994940392085            0.30000973560694744           0.0                           
7.000010020316824             0.2999955518966512            0.0                           
7.249993512058741             0.30001054412376926           0.0                           
7.50001078888044              0.2999893166537698            0.0                           
7.749987169474379             0.30001125690584496           0.0                           
8.000011482854813             0.29998278976838333           0.0                           
8.24998056067545              0.30001192587291425           0.0                           
8.500012146268286             0.2999760279687697            0.0                           
8.749973724007091             0.3000125940268408            0.0                           
9.00001282530153              0.29996903491308247           0.0                           
9.249966645323003             0.3000133126195552            0.0                           
9.500013572586012             0.29996175979796136           0.0                           
9.749959255420757             0.30001413430968543           0.0                           
10.000014439308593            0.29995409804972634           0.0                           
2.447579176688504e-05         0.6000053030962937            0.0                           
0.2500056634666924            0.6000231328749298            0.0                           
0.500022384228567             0.6000064629851539            0.0                           
0.7500068979252063            0.60002070640724              0.0                           
1.0000197686372674            0.600007824975288             0.0                           
1.250008311108062             0.600017679212838             0.0                           
1.5000165233343112            0.6000093128198999            0.0                           
1.750009822045541             0.600013984318112             0.0                           
2.0000126013738906            0.6000108419605797            0.0                           
2.2500113470151697            0.6000096139453096            0.0                           
2.5000080132016738            0.6000123351212187            0.0                           
2.750012814407368             0.6000046096144521            0.0                           
3.000002812254581             0.6000137390750421            0.0                           
3.2500141845905732            0.5999990471294496            0.0                           
3.49999708905438              0.600015036398117             0.0                           
3.7500154375384263            0.5999930384259303            0.0                           
3.999990952412277             0.6000161903601937            0.0                           
4.250016546634536             0.5999866776040425            0.0                           
4.499984495375074             0.6000172307922711            0.0                           
4.750017563255257             0.5999800526764659            0.0                           
4.999977794770371             0.6000182214957382            0.0                           
5.250018552782406             0.5999732071458729            0.0                           
5.499970875837249             0.6000192343759189            0.0                           
5.750019590752142             0.5999661288472963            0.0                           
5.999963707258974             0.6000203497421148            0.0                           
6.2500207581198035            0.5999587479606828            0.0                           
[...]
POINT_DATA  4141
SCALARS Con float 1
LOOKUP_TABLE default
0.00010091518428653066
0.00010832363304251954
0.00012298762953282078
0.00014010187859955553
0.00015941105688348418
0.00018096542085527833
0.00020480287490147732
0.00023092344348295816
0.00025928543516440873
0.0002898046902761443
0.00032235553711906675
0.000356773278611663
0.00039285795761746523
0.0004303789537947271
0.00046907967504916713
0.0005086810279935376
0.0005488831075247877
0.0005893627619532104
0.0006298509691527857
0.0006707142395968708
0.0007164756077696668
0.0007623359691861073
0.0008036138071131422
0.0008428616482795067
0.0008820698963455569
0.0009211217346782621
0.0009600732840951788
0.000999029916979935
0.0010381696261294237
0.0010777297780632865
0.001118000142839849
0.0011593168859836808
0.0012020574701780875
0.0012466359544426675
0.0012934983504917167
0.0013431177773057155
0.0013959886101793334
0.001452611064830511
0.001513353257014139
0.0015765780606580898
0.0016129849417210779
0.00010244412786477095
0.00011002442292880809
0.00012498416399670187
0.00014241685040625933
0.00016206782736959222
0.00018398127319233396
0.00020818902466628476
0.00023468469125629708
0.00026342012614740464
0.0002943049525313886
0.00032720786585548447
0.00036195957894957515
0.0003983572941928712
0.0004361705852321283
0.0004751487113629603
0.000515030482552189
0.0005555594958699461
0.0005965331969732472
0.000637883282712336
0.000680624170893035
0.0007238249353476466
0.0007662901482018686
0.0008075120729973286
0.0008480309695398705
0.0008876899922175801
0.0009269474026073369
0.0009659698852977649
0.0010049420140153128
0.0010440791788308046
0.001083641554171134
0.0011239343550526397
0.0011653056256839174
0.001208142813013388
0.001252868841741956
0.0012999378694225812
0.001349830617681039
0.0014030485440050724
0.0014600985838544365
0.0015213529761613383
0.0015852016902099038
0.0016220104488658914
0.00010158027954251174
0.00010915776275670141
0.00012414983661405147
0.0001416588397135693
0.00016142419810470687
0.00018348782287896692
0.00020787842858466994
0.00023458625980783202
0.000263559726520888
0.00029470520606185283
0.0003278887556018592
0.0003629397469197185
0.00039965657670492917
0.00043781485436475117
0.0004771792246399969
0.0005175212514798788
0.0005586525666269696
0.0006004632973052779
0.0006430965760138833
0.0006854299178306405
0.000725916946444825
0.0007663001533184322
0.000807876387282445
0.0008488742879262856
0.0008890572703272733
0.0009285492058045691
0.0009676122001744431
0.0010064818722771867
0.0010454121688688088
0.0010846873811749846
0.001124629295570196
0.0011655985602190113
0.001207993498900984
0.001252247519460801
0.0012988256876903402
0.0013482206197893204
0.001400947040589763
0.0014575266530637697
0.001518349958530531
0.0015818149152296446
0.0016184159116321704
0.00010008355363283695
0.00010767299972484538
0.00012272578845075858
0.00014036131343614296
0.00016031713698786988
0.0001826305440343073
0.00020732500172797335
0.00023438493488949508
0.0002637526430940703
0.0002953283831396511
0.0003289724391627649
0.0003645092339251766
0.0004017336507640511
0.0004404198311652304
0.00048033264861587627
0.0005212419556603116
0.0005629309515820328
0.0006051967076547718
0.000647533395275766
0.0006892979051488048
0.0007304311321648113
0.0007711425716190929
0.0008117305374847594
0.0008523014062677484
0.000892330752248068
0.0009317250125586315
0.0009705978728997343
0.001009161157193444
0.0010476704795691438
0.0010864213220056773
0.0011257484980920964
0.0011660262013469067
0.0012076668710128617
0.0012511191056850577
0.0012968647854075537
0.0013454154608515333
0.0013973073535989895
0.0014530866955898218
0.0015131715598795117
0.0015760051318664018
0.0016122984598353892
9.796752989142344e-05
0.00010557453828653533
0.00012071690576644479
0.00013853453027740922
0.00015876157418091637
0.0001814289518901646
0.00020655247612827015
0.0002341080524532486
0.00026402880368876097
0.00029620532894805273
0.00033048788283096845
0.00036669046788964736
0.0004045967834816367
0.00044396769670493823
0.0004845492195453944
0.0005260771566962788
0.0005682730977617015
0.0006107886637060955
0.0006532284791259913
0.0006952624563139973
0.0007367042877841394
0.0007776248105801168
0.0008181441962592621
0.0008582250070317643
0.000897800291417721
0.0009367657808450621
0.0009751686857476996
0.0010131683249118358
0.0010510013595777746
0.0010889607646183427
0.0011273880202612452
0.0011666690907460246
0.0012072317620834775
0.0012495430842949789
0.001294106609314281
0.0013414591038287936
0.0013921659730880024
0.0014468070632082804
0.0015058402426218207
0.0015677711031163073
0.0016036196790353897
9.521331234527849e-05
0.00010284643159523394
0.00011811048102973555
0.00013616930848607108
0.0001567521302769336
0.00017988128363825883
0.00020556243936709014
0.0002337601448029208
0.00026439509640717245
0.00029734442129094246
0.00033244373378887117
0.00036949086344826497
0.00040825100792003533
0.00044846267424981007
0.0004898429294766052
0.0005320898782693787
0.00057487656053651
0.0006178569743809938
0.0006606905462536885
0.0007030907267637013
0.0007448896951997953
0.0007860238945812857
0.0008264860182330341
0.0008662725426598208
0.0009053473385703359
0.0009437081612972952
0.0009814090989991031
0.001018593359181955
0.0010554834563648659
0.0010923685410824209
0.0011295947651545997
0.0011675593632681093
0.0012067066465246874
0.001247524900337169
0.001290543570953918
0.0013363302826625196
0.001385486746821476
0.0014386352526247613
0.0014962844135535322
0.0015570211657551934
0.00159227874794424
9.180185273896603e-05
9.947137058546216e-05
0.00011489309688887823
0.0001332565168281433
0.00015428404790650147
0.00017798714083328736
0.00020435877822626763
0.000233349336002283
0.0002648639001253097
0.0002987624413198722
0.00033486162373248015
0.0003729381181659575
0.0004127331758150542
0.00045395792197107235
0.0004962986222795444
0.0005394210224383112
0.0005829772061201031
0.0006266179019911811
0.0006700158367550933
0.0007128974721691356
0.0007550634902788985
0.0007963929666511611
0.0008368222728528774
0.000876318778184813
0.000914876800531257
0.0009525227891309609
0.0009893400746757953
0.001025479589395914
0.0010611650268582788
0.0010966882703174583
0.001132403226399782
0.001168720431866732
0.0012061029633682807
0.0012450633031310507
0.0012861607548378046
0.0013299989431614903
0.0013772224333798576
0.0014285041712559245
0.0014844141134146723
0.0015436400976190873
0.0015781452935410304
8.771625650354898e-05
9.543424183542255e-05
0.00011105332855896477
0.00012978899335169892
0.00015135464334390257
0.00017574843252266337
0.0002029481845714078
0.0002328874820637416
0.0002654529002531791
0.0003004839645168506
0.00033777465179478085
0.0003770764039705209
0.00041810253292736245
0.00046053380957061606
0.0005040250229630878
0.0005482131096199419
0.0005927278331870989
0.0006372069212491825
0.0006813154708897053
0.0007247656561105547
0.0007673316482927537
0.0008088529758883703
0.0008492285494430367
0.0008884079670696937
0.000926386096918312
0.0009632075776107062
0.0009989738243143512
0.0010338513905556355
0.0010680750167811521
0.001101947119014332
0.0011358345398434732
0.0011701648199399775
0.0012054229360279093
0.0012421487763437464
0.0012809352314302558
0.0013224265435391892
0.0013673159714415026
0.0014163345932643268
0.0014701237387011491
0.001527492526093966
0.001561066116008434
8.29459776058735e-05
9.072570585239251e-05
0.00010658464532230018
0.00012576363948733766
0.00014796454966345925
0.0001731698057907142
0.0002013398066143922
0.00023238907690491944
0.0002661832390422072
0.0003025385858255625
0.0003412232125065565
0.0003819598033856613
0.0004244301586659834
0.0004682814827478007
0.0005131345644054166
0.0005585940897822081
0.0006042615423162196
0.0006497506612532175
0.0006947043962462612
0.0007388110170153421
0.0007818160205779524
0.0008235280870285563
0.0008638193562379003
0.0009026228942569649
0.0009399312118552855
0.0009757969413534091
0.0010103361258993577
0.0010437312295040785
0.0010762330051556357
0.0011081601203410212
0.0011398973744266739
0.0011718933368810654
0.0012046582257707569
0.0012387624184711644
0.0012748356463831354
0.0013135666193068245
0.0013557021830029835
0.001402038014937351
0.0014532960266688292
0.0015084275878022811
0.0015408697310516435
7.749178834281408e-05
8.53466372226331e-05
0.00010148878060070859
0.00012118365358092009
0.00014411879513877328
0.0001702585812331409
0.00019954409459112268
0.00023186909122995978
0.00026707639982876514
0.0003049568507899027
0.0003452498610349161
0.0003876459449960054
0.0004317914198426083
0.0004772954772245319
0.0005237397279910405
0.0005706902314176115
0.0006177118164750619
0.0006643840802872026
0.0007103178150619369
0.0007551700492881426
0.0007986559175594908
0.0008405562194248108
0.0008807208945804268
0.000919069788869509
0.0009555923545224421
0.0009903476448887712
0.0010234647032633457
0.001055142995894246
0.0010856522574650427
0.0011153315490491768
0.0011445877396132537
0.0011738939787125037
0.0012037886310951385
0.0012348750328525428
0.0012678221352086625
0.0013033658392543708
0.0013423101585574603
0.0013855204460902128
0.0014338071389000916
0.001486285128507937
0.0015173731790564977
7.13717586847348e-05
7.931333664398918e-05
9.577953797244932e-05
0.00011606082240701691
0.00013982755710178221
0.00016702401255248704
0.000197570689661716
0.00023133965634324823
0.0002681499019249981
0.00030776519253408383
0.0003498937679783281
0.0003941903727494258
0.00044026104794359566
0.0004876709469729706
0.0005359552100708604
0.0005846326723298205
0.0006332218323799475
0.000681258129395549
0.0007283111799823211
0.000774000466387922
0.0008180080811493512
0.0008600877358085825
0.0009000700153617428
0.0009378645510139267
0.0009734601768426001
0.0010069239642874752
0.001038399791146261
0.0010681065538802757
0.0010963362503100369
0.0011234519593181264
0.0011498860717429784
0.0011761391482196344
0.0012027797756668948
0.001230445672494614
0.0012598460801138557
0.0012917652547192737
0.0013270661877445927
0.001366687093085532
0.0014115330947106635
0.0014609037399291181
0.0014903908740808941
6.462820606061168e-05
7.266350461278696e-05
8.948691487471998e-05
0.00011041768829278507
0.00013510637143814897
0.00016347564194836166
0.00019542511221004051
0.00023080538147700805
0.0002694116287433571
0.000310979730330636
0.00035518453762747236
0.0004016410593881216
0.0004499091688364283
0.0004995021848149136
0.0005498992825108761
0.0006005612972244912
0.0006509490322467671
0.0007005428114215392
0.0007488617417120624
0.0007954811521487658
0.0008400468750131113
0.0008822855940334945
0.0009220110702700483
0.0009591266935949361
0.0009936251507118607
0.0010255861157235449
0.0010551728179868458
0.0010826281047429296
0.0011082705871141745
0.001132491292358483
0.001155751287592435
0.0011785806745410806
0.0012015792801184227
0.0012254192247819113
0.0012508493814971818
0.0012787014862982705
0.0013098970396758724
0.0013454478707892986
0.0013863575561441444
0.0014321306989913713
0.0014597457013754017
5.7335501592434064e-05
6.54627775888214e-05
8.266132264983893e-05
0.00010428932393726135
0.00012997550550111135
0.00015962041948162863
0.00019310392393299595
0.00023025698034101575
0.00027085246157676984
0.00031459857283134055
0.0003611349198447952
0.000410032303161972
0.00046079712677709
0.0005128808699892808
0.0005656945306446881
0.0006186273411736091
0.0006710685136786684
0.0007224303420731064
0.0007721707720635843
0.0008198136189053695
0.0008649649324043053
0.000907324628642302
0.0009466930956343139
0.0009829732032796128
0.0010161685168170204
0.0010463788249034
0.0010737941171650664
0.0010986880158978154
0.0011214116542739693
0.001142388647763722
0.00116211186257747
0.0011811423872134475
0.0012001110586891861
0.0012197226881819185
0.001240762945523114
0.0012641076321186601
0.0012907334758347137
0.0013217236477317082
0.001358180906200289
0.0013998338351024625
0.001425282383240665
4.960829937560955e-05
5.781144461688663e-05
7.537748625594254e-05
9.772432706738179e-05
0.0001244581136027608
0.00015545825304073572
0.00019058802444597858
0.0002296628393934444
0.000272436825682986
0.00031859219383338855
0.00036773195250052804
0.0004193775484845832
0.00047297271182604353
0.0005278941128948755
0.0005834686534975004
0.0006389963907236858
0.0006937773202172507
0.0007471397307782864
0.0007984676403319556
0.0008472249377692445
0.0008929744192832129
0.0009353905863417
0.0009742659755303633
0.0010095115229036785
0.001041152107289843
0.0010693187056720727
0.001094238759182389
0.0011162261966352288
0.0011356724014414579
0.0011530391486994768
0.001168854248798181
0.001183710449154131
0.0011982678871928004
0.0012132602354694045
0.00122950446647492
0.0012479139569063634
0.0012695139672506055
0.001295453168807464
0.001326930540885882
0.0013639152510737773
0.0013868831333597401
4.160943901318791e-05
4.985060089299431e-05
6.773742859721691e-05
9.078453991871932e-05
0.00011857685430102543
0.00015097572322156488
0.00018783383186682267
0.00022895825603232704
0.0002740908447312033
0.0003228915895550805
0.00037492629777039095
0.00042966101164747185
0.000486464955054013
0.0005446228612285502
0.0006033564087738525
0.0006618532578418175
0.0007193012001570755
0.0007749241527247665
0.0008280164984252505
0.000877972615940403
0.0009243091683588043
0.0009666788224682372
0.0010048752752846086
0.0010388304826309436
0.0010686057623545205
0.0010943789281066213
0.001116429559074329
0.0011351244997287015
0.0011509051673133756
0.0011642779879961955
0.00117580876919011
0.0011861215652915714
0.0011959022762229017
0.0012059070665846679
0.0012169755335028898
0.001230048367822537
0.0012461886593331246
0.0012666005015761499
0.0012925721394958871
0.001324326620217136
0.0013444852536496122
3.355616979366646e-05
4.176657061711878e-05
5.9871609559601704e-05
8.354305659199554e-05
0.00011234881647286075
0.00014613802134205137
0.0001847624025979993
0.00022803228636255387
0.0002756880093603856
0.0003273741528949094
0.0003826198319360247
0.000440828403176364
0.0005012790845371981
0.000563141703506635
0.0006255041521778266
0.000687410430439734
0.0007479055464443182
0.0008060825476040941
0.0008611266539079502
0.000912352009845171
0.0009592278218702437
0.0010013923649046185
0.0010386550411148488
0.0010709881460256102
0.0010985110782027751
0.0011214700164797948
0.0011402162233107023
0.0011551855710882348
0.0011668813556417667
0.001175861850643343
0.001182733411099462
0.0011881495571215192
0.0011928161286588212
0.001197502436834198
0.0012030583399137772
0.0012104371393227519
0.0012207238349365135
0.0012351633988836994
0.0012551215348391776
0.0012810855627318
0.0012981005441677629
2.57223602528155e-05
3.379171000303737e-05
5.193734068088945e-05
7.60802068526981e-05
0.00010577933304682828
0.00014087969573644462
0.00018124666456913172
0.00022671241919402317
0.0002770326615739278
0.00033184764564820864
0.000390651954160675
0.0004527774112198661
0.0005173926875289087
0.0005835214848976126
0.0006500788073323547
0.0007159222312987094
0.0007799126414296082
0.0008409773248039197
0.0008981679413997596
0.0009507069283120809
0.0009980179427090225
0.0010397387317626328
0.0010757174012555456
0.0011059951664545498
0.0011307799448641133
0.0011504154039917345
0.0011653497453670062
0.0011761077029558004
0.0011832680486417166
0.0011874481700766477
0.0011892962425427652
0.001189491151058694
0.0011887499012604309
0.0011878422077593106
0.0011876119906320045
0.0011890057425014069
0.001193108217389001
0.0012011822961676306
0.0012146580579451202
0.001234292061787208
0.0012478336908908982
1.843509671101444e-05
2.619952697239018e-05
4.411268788838116e-05
6.847966596535919e-05
9.88563714213819e-05
0.0001350940525419371
0.0001770972384491063
0.00022474808883759127
0.00027784252255092396
0.00033603347683786836
0.0003987858125174031
0.00046534924055213056
0.0005347546317126077
0.000605836845618165
0.0006772838407390442
0.0007477075296257565
0.0008157280637462144
0.0008800605201097168
0.000939592632043298
0.0009934439556933414
0.0010410006078935812
0.0010819241263753147
0.0011161371492694522
0.001143791556931989
0.0011652260833540267
0.0011809203639358162
0.0011914512415857612
0.0011974555764150171
0.0011996020873043759
0.0011985733425706464
0.0011950579820981817
0.0011897526517930818
0.0011833728661782559
0.0011766720522488642
0.0011704682277148394
0.0011656781434395177
0.0011633589308180424
0.0011647584077135367
0.001171335635653717
0.0011841455674522635
0.0011939070254552932
1.2053720266116741e-05
1.9289347600550873e-05
3.659510333364054e-05
6.082784326214701e-05
9.154041306983206e-05
0.0001286205186377865
0.00017204903990075736
0.00022179615291308596
0.0002777333332120149
0.0003395518690710638
0.000406696516269971
0.0004783231100439112
0.0005532888997688527
0.000630181297374071
0.0007073855121780572
0.0007831847213187653
0.0008558798062033558
0.0009239112842215629
0.0009859655012714437
0.0010410505529398547
0.0010885340774340355
0.001128142553801164
0.0011599282446595378
0.0011842139696945472
0.0012015270635453701
0.001212532753560801
0.0012179746930424304
0.0012186274389139387
0.0012152630424214753
0.0012086319649426518
0.001199457245049007
0.001188440376778714
0.001176277435483879
0.0011636840112395788
0.001151428286199396
0.0011403717063812498
0.0011315175667694554
0.0011260632792156014
0.0011254454615970868
0.001130950085785106
0.0011366399308660932
6.99566047287325e-06
1.3392659651447135e-05
2.959828319119512e-05
5.319562843320713e-05
8.375893000375924e-05
0.00012125205270779026
0.00016577382793406592
0.0002174342605883477
0.0002762305855618014
0.0003419321405420111
0.0004139823826309258
0.0004914324011163178
0.0005729198965561224
0.0006567045580135059
0.0007407622289494577
0.0008229293866382328
0.0009010772329732162
0.00097328733736792
0.0010379993810798792
0.001094108721136918
0.0011410033123013651
0.001178542852859421
0.0012069931557780237
0.0012269340132493938
0.0012391586556866063
0.0012445796532989978
0.001244150706569063
0.001238808987975018
0.0012294386852870934
0.0012168539707682145
0.001201798430149105
0.001184957884851228
0.001166983979960497
0.0011485267783531712
0.001130275435087018
0.0011130069264849555
0.0010976428091986157
0.0010853158072128726
0.0010774038317306201
0.0010753867178274702
0.001076726423918645
7.74052998382257e-05
0.0001151498155351867
0.00021432247414377237
0.0004238262470236669
0.0005078876292612266
0.000688273246165866
0.0007798652522750222
0.0009524703833116474
0.0010285242387541183
0.0011512945866288863
0.0011963670402475026
0.001230508480814004
0.0012543103872799074
0.0012687043560098267
0.0012748191887572825
0.0012738570506492886
0.0011551611003653211
0.001131399945109795
0.0010450438928678613
0.0010304543562885161
0.0010186331785633045
3.7569013175007832e-06
9.408469440435108e-06
2.442169147583707e-05
4.718493561178184e-05
0.00016068906129600082
0.00027621505548904544
0.00034623729248984154
0.0005967619790132617
0.0008688122454060577
0.001095183013717509
0.0012669988598276313
0.001255341393030464
0.001239863620468012
0.0012214172426913592
0.0012007359450182848
0.0011784583471769628
0.0011077580838737779
0.0010849024619115943
0.0010636500690521728
0.0010214521281690354
2.3176993902066307e-06
7.052209720787949e-06
2.0632391338944714e-05
4.220780656786645e-05
7.148429046712287e-05
0.00010861662092301956
0.00015400272700945384
0.00020810191979761316
0.0002712375850888136
0.00034340534881596073
0.00042409860174538906
0.0005121786234161819
0.0006058200149944818
0.0007025587493823318
0.0007994539224123116
0.0008933482536222894
0.0009811843219001387
0.0010603147275549149
0.0011287445539551993
0.0011852636867069582
0.0012294577962827548
0.0012616158742381565
0.0012825709637192474
0.0012935149472578244
0.001295821795596211
0.0012909013205693073
0.0012800933668847812
0.0012646026485741155
0.001245468752248847
0.001223563595281161
0.0011996084726401998
0.001174204644052476
0.0011478728734457013
0.001121099817010581
0.0010943905544190924
0.001068328163103257
0.001043643044924508
0.0010212923562138458
0.0010025588877838325
0.0009890611248766746
0.0009836599909235663
1.6151052886582135e-06
5.472555463952367e-06
1.7672482293138894e-05
3.807193589482888e-05