# vtk DataFile Version 2.0
time_10.vtk
ASCII
DATASET UNSTRUCTURED_GRID
POINTS   4141  float 
5.053527433574954e-05         1.0941098863963767e-17        0.0                           
0.25000000000000067           4.78797318222926e-05          0.0                           
0.5000463930805105            -7.73183890043461e-18         0.0                           
0.75                          4.305249958650714e-05         0.0                           
1.00004118212309              -1.3219209454751865e-19       0.0                           
1.2500000000000004            3.701000800954447e-05         0.0                           
1.500034700069063             8.22669959063873e-17          0.0                           
1.75                          2.9622946760742716e-05        0.0                           
2.0000268563485566            -2.77174103386754e-17         0.0                           
2.25                          2.087920602868825e-05         0.0                           
2.5000176777796828            4.4371325106587885e-18        0.0                           
2.749999999999999             1.0884962337481095e-05        0.0                           
3.0000073176453976            -7.269206954874786e-17        0.0                           
3.25                          1.4496573379189367e-17        0.0                           
3.4999958604156935            -4.1694742617440757e-16       0.0                           
3.75                          -1.2488417889142127e-05       0.0                           
3.9999832474214063            -2.82831507596931e-17         0.0                           
4.25                          -2.547899722238206e-05        0.0                           
4.499970063955843             -5.544841831550278e-17        0.0                           
4.749999999999999             -3.902419840820869e-05        0.0                           
4.999956347937703             -6.934647726236289e-17        0.0                           
5.25                          -5.307550692111701e-05        0.0                           
5.499942125085266             1.2319770250524928e-16        0.0                           
5.75                          -6.76687165911506e-05         0.0                           
5.9999273250046254            2.376320723823645e-18         0.0                           
6.25                          -8.294563942227748e-05        0.0                           
6.499911770766098             1.6262982903156733e-15        0.0                           
6.75                          5.0388736614876185e-05        0.0                           
7.000049112221093             3.7011016110438315e-06        0.0                           
7.2500039723039995            4.62516317238694e-05          0.0                           
7.500044646592568             4.562813612405134e-06         0.0                           
7.7500048788891185            4.104263151704589e-05         0.0                           
8.000039029770074             5.543209862986387e-06         0.0                           
8.250005887337414             3.455803252334905e-05         0.0                           
8.500032093853948             6.588972073343026e-06         0.0                           
8.750006942318898             2.670658912641869e-05         0.0                           
9.000023786831346             7.644200977532453e-06         0.0                           
9.250007989084862             1.7513330154976048e-05        0.0                           
9.500014170544429             8.658343425287746e-06         0.0                           
9.75000897946802              7.105776190986852e-06         0.0                           
10.00000338777355             9.587709554356488e-06         0.0                           
9.928101257715443e-06         0.299995567556004             0.0                           
0.24999148052210762           0.30001052790319294           0.0                           
0.5000107906511597            0.2999830395734902            0.0                           
0.7499787089867619            0.3000112975316425            0.0                           
1.0000115425479745            0.2999698533328298            0.0                           
1.249965335625716             0.3000120205028743            0.0                           
1.5000122562672535            0.2999561320366383            0.0                           
1.7499514474951596            0.3000127298663911            0.0                           
2.000012971476137             0.2999419068236132            0.0                           
2.249937044234524             0.30001347423035113           0.0                           
2.5000137393750075            0.29992710815649126           0.0                           
2.7499220201206827            0.3000143068235539            0.0                           
3.0000146126571274            0.29991155855219176           0.0                           
3.2499061636559263            0.30001527613235013           0.0                           
3.5000068841949443            0.300048678154427             0.0                           
3.7500473079854793            0.30000793502137313           0.0                           
4.000008511682337             0.30004422541662085           0.0                           
4.250042493666553             0.300009752351824             0.0                           
4.500010408990076             0.3000386103630956            0.0                           
4.7500364474788155            0.3000117745357499            0.0                           
5.000012474958879             0.300031662019063             0.0                           
5.250029036991145             0.3000138900485021            0.0                           
5.500014596661793             0.30002332676697413           0.0                           
5.750020247167105             0.30001598958143305           0.0                           
6.000016669454325             0.30001366030127874           0.0                           
6.25001016270535              0.30001798393809986           0.0                           
6.5000186175496               0.30000277471733383           0.0                           
6.749998905809937             0.30001986841417166           0.0                           
7.000020470691425             0.2999908542547741            0.0                           
7.249986681998738             0.30002157866545504           0.0                           
7.500022097009923             0.29997808987055596           0.0                           
7.749973687593326             0.3000230905946978            0.0                           
8.000023571388665             0.29996469856682484           0.0                           
8.249960118770778             0.3000245157576382            0.0                           
8.500024986102648             0.2999507964748916            0.0                           
8.749946053165377             0.3000259418213621            0.0                           
9.000026435143939             0.29993638981287324           0.0                           
9.249931460570943             0.300027472947712             0.0                           
9.500028025359475             0.2999213735503555            0.0                           
9.749916198473471             0.30002921568241536           0.0                           
10.00002986010184             0.2999055332663976            0.0                           
4.921504333925064e-05         0.6000102983179698            0.0                           
0.25001106105858384           0.600046592687932             0.0                           
0.5000451192514863            0.6000127463165725            0.0                           
0.7500136602573975            0.6000417948230875            0.0                           
1.0000399264072222            0.6000156039449356            0.0                           
1.2500166215654822            0.6000357443979706            0.0                           
1.5000334222326228            0.6000187164170014            0.0                           
1.7500197807913147            0.6000283055380918            0.0                           
2.000025511361523             0.6000219125449057            0.0                           
2.2500229685359945            0.6000194619904333            0.0                           
2.5000162142590767            0.6000250361517483            0.0                           
2.7500260402655927            0.6000092963706432            0.0                           
3.0000056369934964            0.6000279812089673            0.0                           
3.2500289188892606            0.5999979598676475            0.0                           
3.499993962234395             0.6000307165197356            0.0                           
3.7500315647055658            0.5999856816533029            0.0                           
3.9999814117343213            0.6000331591093773            0.0                           
4.250033915226954             0.5999726509622796            0.0                           
4.4999681737124035            0.6000353704246181            0.0                           
4.750036078953135             0.5999590489543121            0.0                           
4.999954406672435             0.6000374835399329            0.0                           
5.250038190837063             0.5999449648405474            0.0                           
5.499940161971533             0.6000396453464131            0.0                           
5.750040404891223             0.599930372962516             0.0                           
5.999925374673034             0.6000420191112882            0.0                           
6.250042885422661             0.5999151296229763            0.0                           
[...]
POINT_DATA  4141
SCALARS Con float 1
LOOKUP_TABLE default
0.0003827036293101576
0.00041343481849384373
0.0004740676206212306
0.000544975231667292
0.000625153411019018
0.0007148438778468676
0.0008142333431963463
0.0009233484550886764
0.0010420396782363222
0.0011699779258725477
0.0013066583139145146
0.0014514102010196662
0.001603412396708882
0.0017617115351042582
0.001925240322239006
0.002092829822258713
0.0022632131545037995
0.0024350148606435704
0.0026070937763631274
0.002781372469903424
0.002978820325001941
0.0031770933132296824
0.0033543575342312487
0.0035230149401452625
0.0036919742944659726
0.0038606992901825347
0.004029393493391281
0.004198469258502152
0.0043686516645444476
0.004540919636403437
0.004716474885342668
0.004896715235637471
0.0050832121593668116
0.005277689901559009
0.005482004890784733
0.005698124271963616
0.005928100315170403
0.0061740054780204156
0.006437353587675039
0.006711123472569401
0.006868845568653415
0.0003887055127528418
0.0004201590196126032
0.0004820211456464194
0.0005542587890392438
0.0006358702784161052
0.0007270722866347342
0.0008280262599559698
0.0009387320514122207
0.0010590131100892746
0.0011885143504995273
0.0013267074263396351
0.001472902832863984
0.0016262683477905886
0.0017858533597953162
0.0019506193856561546
0.002119482146707574
0.002291379468987451
0.0024654926658405694
0.002641641885731993
0.0028244563519980027
0.0030098853861735236
0.0031925184705085346
0.003369987946906855
0.003544537853389524
0.0037156672290161105
0.003885424157500224
0.004054526570722626
0.004223747818745328
0.004393983032691688
0.00456631381309257
0.0047420107263346015
0.00492252418106539
0.005109469581715031
0.005304610108448799
0.005509837927418706
0.00572715351424509
0.005958640213420704
0.006206399895843912
0.006471963882481198
0.006748423415300745
0.006907879562197584
0.00038529391807640866
0.0004167253074393142
0.00047870365045790577
0.0005512369934017155
0.0006333015276898563
0.0007251057987175198
0.0008267995601787662
0.0009383699616397505
0.0010596274942135746
0.0011902050929157835
0.0013295652758397297
0.0014770154027141844
0.001631731822274052
0.0017927948560740533
0.001959240105834485
0.0021301375894752267
0.0023047401614111696
0.002482659914911845
0.0026646247077719413
0.002845678263098039
0.0030185729686757604
0.003191412295692317
0.0033704121272980984
0.0035473321694060814
0.0037209753679389524
0.0038919206026537816
0.004061321879251095
0.004230191645403364
0.004399603564965123
0.004570750587486505
0.0047449792896008
0.0049237974715093495
0.005108869743084305
0.005302006431684467
0.005505148545106503
0.005720349552518082
0.005949751592728462
0.006195521310211712
0.006459267569972373
0.006734106258778528
0.00689267409990851
0.0003793748239432308
0.00041083945905932595
0.0004730370358586104
0.000546058487933228
0.000628875013369119
0.0007216781503863918
0.000824597901585781
0.0009375992809811453
0.001060469481132072
0.0011928182207035752
0.0013340864759847004
0.0014835638904580853
0.0016404156855133667
0.0018037203872355125
0.0019725194117843287
0.002145878850789795
0.0023229243297243425
0.002502832391587974
0.002683400213254979
0.002861705044511417
0.0030375490313309305
0.0032119719892819767
0.0033864065163075794
0.0035613771285114577
0.0037344282863778977
0.003905067025923571
0.004073762043739265
0.004241410686725936
0.004409092166713362
0.00457804917586031
0.004749686618004037
0.004925572896669393
0.005107435671056649
0.005297152947129023
0.005496740393607232
0.005708335194477628
0.005934173837020245
0.00617652936115386
0.0064371281385755715
0.006709274694894526
0.006866529579588728
0.000371009263827882
0.0004025226380473308
0.0004650446614048728
0.0005387683569057413
0.0006226548523828775
0.0007168721917480837
0.0008215213930552083
0.0009365348115671882
0.0010616642079127625
0.001196481822653257
0.0013403895450858911
0.001492636134085417
0.0016523422971910185
0.0018185321271406625
0.001990166249624004
0.0021661591654482393
0.0023453552012416812
0.002526271223029792
0.002707182841430568
0.0028866610238553834
0.003063915972134617
0.0032393350952270917
0.0034135209150869088
0.003586319121580372
0.0037574057888935175
0.0039262527035247964
0.004093007420913272
0.004258319008228484
0.004423173786492901
0.004588798857312546
0.004756626428747304
0.004928276067717255
0.00510554301584816
0.005290386924989902
0.005484919318469156
0.005691388534564587
0.005912158938773189
0.0061496496548669915
0.006405758201546157
0.006674058391585326
0.006829425769079011
0.00036012554595136787
0.0003917149830535789
0.0004546784698063337
0.0005293315265640366
0.0006146199515155353
0.0007106799460925405
0.0008175739420577742
0.0009351905101187103
0.0010632330187618484
0.0012012207292079686
0.0013484972843198926
0.0015042461222760652
0.0016675116933075743
0.0018372235843196266
0.0020122167990311458
0.0021912385440205117
0.002372915838901323
0.0025557766007567456
0.002738362360041211
0.002919445571366931
0.003098329852025561
0.0032747793848853127
0.003448797124000399
0.0036203805715947376
0.0037893486905915988
0.00395564722132777
0.00411945572150899
0.004281342778254017
0.00444222368861476
0.0046033025038390235
0.004766028233260603
0.00493206808145832
0.00510328932738446
0.005281745139791145
0.00546966141077039
0.005669422587718361
0.005883552563998519
0.006114656054453886
0.006364851845128833
0.0066280630724340995
0.006780917182057014
0.000346653693285932
0.0003783527153349653
0.0004418889193091949
0.000517714068998435
0.0006047522410579096
0.0007030990344877624
0.0008127684844979314
0.0009335943878684991
0.0010652190871766084
0.0012070939866489553
0.0013584867676314104
0.0015184947259009513
0.0016860630894368202
0.0018600058617850536
0.002039025858468297
0.002221730056312714
0.0024066561661315613
0.0025923255113594495
0.002777346191988498
0.0029605567853785613
0.0031411168932627374
0.003318524929365897
0.003492519687430249
0.0036629581357123775
0.0038297952753041033
0.003993107036269513
0.004153205301601181
0.004310690247180918
0.004466476873159679
0.004621775968758495
0.004778066759183837
0.004937072648698075
0.005100742541408524
0.005271236158073713
0.005450911450426622
0.005642312110019023
0.005848151078881483
0.006071255718229486
0.006314012453030689
0.006570776099878517
0.0067204253666564035
0.0003305350404734064
0.000362383255662148
0.00042663620003233687
0.0005038911621853887
0.0005930426563964375
0.0006941365566227535
0.0008071290590031796
0.0009317890855452568
0.0010676866487929167
0.0012141922777976358
0.0013704827194396545
0.0015355526967607775
0.001708232205482602
0.0018872084155594235
0.0020710513869422148
0.0022582465773131606
0.002447239197418878
0.0026364991948337546
0.0028246065321934524
0.003010337912652696
0.003192732440031549
0.003371104903615845
0.003545017407256397
0.003714239014206835
0.003878720639034989
0.004038615956108746
0.004194314683349998
0.00434648328873574
0.004496081585326641
0.004644362598947492
0.004792859167213575
0.004943367506563351
0.005097932247190811
0.005258834232686967
0.005428580534752312
0.005609895232117771
0.005805706971422075
0.006019099370252194
0.0062527707089238055
0.006501595521850926
0.006647269666712788
0.00031173969072060593
0.00034378004646554264
0.0004089022572002182
0.0004878556639253252
0.00057949614057222
0.0006838106643652276
0.0008006890819558633
0.0009298269676756708
0.0010707127907100841
0.0012226255706104703
0.0013846387797618195
0.0015556308907555049
0.0017343029445710644
0.0019192033388290414
0.0021087606004035597
0.0023013255830809996
0.0024952254744317268
0.002688829822486265
0.002880623791268774
0.0030692782015627005
0.0032537010874257003
0.003433063156291516
0.00360679835038777
0.003774592416105049
0.00393637688503031
0.004092333408518056
0.004242910577746454
0.004388840139274377
0.004531148071627125
0.0046711551763906805
0.004810470565555361
0.004950981600695327
0.00509484405602769
0.005244474318228785
0.005402543923581179
0.005571975449662922
0.005755935996820777
0.005957795033013425
0.006180604029971581
0.006419848463358254
0.006560685768208015
0.00029028700571741907
0.00032256081098839314
0.0003887045619692251
0.00046962715649699155
0.0005641358362940778
0.0006721499458546315
0.0007934861254444271
0.0009277605690537192
0.0010743737291681141
0.0012325050938805132
0.0014011145421227705
0.0015789514608167046
0.0017645728106397928
0.00195637105322229
0.0021526126131568
0.0023514872891515328
0.0025511680721001977
0.0027498788820874585
0.002945964854939207
0.00313795712070069
0.003324624219945433
0.0035050051266123415
0.0036784249308972096
0.003844499242816501
0.004003134529776547
0.00415453037621589
0.004299183828025374
0.004437894348289684
0.004571765838738822
0.004702204786297636
0.004830914996577312
0.0049598913103875925
0.005091414396912699
0.005228048235501851
0.005372640669419235
0.0055283262813198624
0.005698527993818183
0.005886925079111827
0.006096958583920596
0.0063248180975292384
0.006459855213344447
0.0002662700152193573
0.00029880878743932345
0.00036611150887146907
0.0004492610573839695
0.0005470058167416883
0.000659189931639297
0.0007855526360699193
0.0009256281701867931
0.0010787260470720463
0.0012439211290459057
0.0014200509826615565
0.0016057226191235371
0.0017993305576315666
0.001999087507605332
0.002203068103905006
0.002409265018684867
0.002615655315709976
0.0028202731222713457
0.0030212829379633504
0.0032170470336094644
0.003406180927094398
0.0035875934438411245
0.0037605112113574036
0.003924490443897359
0.0040794204957575525
0.00422552289836222
0.00436334843602792
0.004493772729286807
0.0046179906695104885
0.004737509854226979
0.004854144204080395
0.00497000928178219
0.00508752097143869
0.005209398591240862
0.0053386727095396345
0.005478696903922884
0.005633159888506731
0.0058060668579850115
0.006001277502736276
0.00621577866226314
0.00634394393154294
0.00023988347328070156
0.00027269673666640865
0.0003412588598822682
0.00042685704479375805
0.0005281714649845145
0.000644965785244787
0.0007769016727920126
0.0009234337269479762
0.0010837823259611488
0.0012569162075100522
0.0014415435047931662
0.0016361144368443933
0.0018388384435592054
0.0020477174482781547
0.0022605954191357767
0.0024752226866645325
0.0026893315978133727
0.0029007183816849563
0.0031073248827784197
0.0033073135853983154
0.0034991302743524228
0.0036815508184148784
0.003853711151301565
0.004015122097251539
0.004165672113750099
0.004305621658231708
0.004435592424568608
0.004556554038027678
0.004669810325801181
0.004776986963943065
0.004880022276235221
0.004981162956724965
0.005082966054002994
0.005188308117570888
0.005300401557858076
0.005422817301850667
0.005559510148818732
0.005714816995327168
0.005893035169520148
0.006092039232388099
0.006212151040631106
0.00021145483484700113
0.0002445128136789148
0.00031436623033873214
0.0004025656606343232
0.0005077163067566153
0.0006294999317227971
0.0007675064382403873
0.0009211199412291376
0.0010894799247291665
0.0012714522808907013
0.0014656105984463144
0.0016702323476635614
0.0018833138881508137
0.002102606518751054
0.002325673569032169
0.0025499660685696806
0.0027729121682943648
0.00299201360056735
0.0032049414098018437
0.0034096232848101183
0.0036043160882981685
0.0037876594820668574
0.003958709195949966
0.004116951165871332
0.004262299636957809
0.004395083457609928
0.004516025077348542
0.004626216415927473
0.004727095423578915
0.004820426379507549
0.004908286648664425
0.004993061886162708
0.005077451197592779
0.00516448297969172
0.005257541353547375
0.00536040206103044
0.0054772741483361965
0.005612818970059413
0.00577177745019394
0.005952996327082012
0.0060637681353782474
0.00018147624672789934
0.00021468649640694166
0.00028575186210231564
0.0003765915066343252
0.00048573385661350313
0.0006127833543951919
0.0007572723553007233
0.0009185331418211198
0.0010956414427284278
0.0012873702053593024
0.0014921562099430965
0.001708086257133565
0.0019329085390371252
0.0021640722103225033
0.0023987949932122044
0.0026341552131633962
0.0028672014934182236
0.0030950709695587906
0.0033151057984769166
0.00352495807720337
0.003722675189401561
0.003906760428278003
0.004076207211814801
0.0042305083865186
0.004369644716206282
0.004494058182973335
0.00460461637483538
0.004702574047666595
0.004789537177839545
0.004867434018776282
0.0049384964566238435
0.0050052542200588425
0.005070543386493015
0.005137529934675779
0.005209748161396707
0.0052911527193862514
0.0053861802037214225
0.005499793608393535
0.00563716737307453
0.0057981950059302215
0.005898249026240759
0.0001506340394583423
0.0001838113682234829
0.0002558431239045945
0.0003491910636560903
0.0004623132466209269
0.0005947497137787056
0.0007460009643438974
0.0009153791466158707
0.0011019258605754192
0.001304340488031904
0.0015209249057540407
0.001749554793941532
0.0019876854131158843
0.0022323960490438794
0.0024804728067018824
0.002728524497427391
0.0029731220115976746
0.003210948257145938
0.003438944437197095
0.0036544392586125886
0.003855250449284336
0.004039752173846308
0.004206906712012859
0.00435626314595168
0.004487929208808815
0.004602524545142807
0.004701124158658249
0.004785200555193994
0.004856571670494626
0.004917360289513163
0.0049699689542566945
0.005017072974552374
0.005061632974209517
0.005106927534681686
0.005156605781979159
0.005214758868423869
0.005286006542298743
0.005375571937917576
0.0054890353248565555
0.005627397291765791
0.005715288558137366
0.00011983008161799812
0.00015265974852317972
0.00022517898379212505
0.0003206634453202886
0.0004375182879238943
0.0005752428274846038
0.0007333461646722408
0.0009111701969120277
0.0011077702908756245
0.0013218052857265643
0.0015514501926113375
0.0017943458670933035
0.0020475965335696646
0.0023078211887014267
0.0025712584683880036
0.002833917501464893
0.0030917606958924012
0.00334089971671731
0.0035777841164947627
0.0037993636356207275
0.004003209731958061
0.0041875884190725
0.004351483557139678
0.004494575983853205
0.004617188499636741
0.004720208962397239
0.0048050042128809
0.0048733361742829264
0.004927289328166123
0.004969216245127969
0.005001705460367821
0.005027573949848903
0.005049885178073873
0.005071992703610965
0.0050976090946069875
0.005130899856148219
0.0051766002258231275
0.005240131947550073
0.005327432019616783
0.00544065562131409
0.0055149097778622634
9.018500433935092e-05
0.0001221813872861696
0.00019440084889743353
0.0002913331034824283
0.0004113626952606107
0.0005539803943350797
0.0007187642325872359
0.0009051644811569835
0.0011123241454851019
0.0013389136638169974
0.0015829982747835735
0.0018419565071367448
0.0021124653707575887
0.0023905614120856783
0.0026717776374114
0.0029513457107293818
0.003224442616374878
0.0034864537930489347
0.0037332221354755704
0.003961255275148749
0.004167871120648112
0.004351272238864293
0.004510550505878617
0.004645632575163224
0.004757182656366626
0.00484648137103804
0.004915298695478143
0.0049657761790813425
0.005000329503145503
0.0050215787238786745
0.005032309819922405
0.005035468844363647
0.005034188249214352
0.005031844324810551
0.005032144793904985
0.005039246327843387
0.005057903859321467
0.0050936383587780075
0.005152687950094283
0.005238386713321863
0.005297547216426216
6.301631557899696e-05
9.347757935492521e-05
0.00016422512624548474
0.000261533426382578
0.0003837887938323449
0.0005305141282123744
0.0007014601332320815
0.0008963031072770035
0.0011143813370460432
0.0013544555335100526
0.0016145123290073797
0.0018916372579522267
0.002181980398395103
0.0024808297830999897
0.002782794557574151
0.003082082891205111
0.0033728435710473495
0.0036495280924377987
0.003907226558884872
0.004141935989709718
0.004350733163988366
0.004531841646209398
0.004684599825827294
0.004809350140163122
0.004907276850983405
0.004980221102803792
0.005030498605187279
0.005060739329893054
0.005073761854479781
0.005072488879592533
0.005059905764797903
0.005039060933271349
0.005013105453081333
0.004985368884560459
0.004959468971006246
0.004939454367029617
0.0049299802628928625
0.004936522069407976
0.004965464228466991
0.005021448450528584
0.00506415709738539
3.974488271688878e-05
6.773366095984467e-05
0.00013543389979241182
0.00023160422492211612
0.0003546301952105914
0.0005041843147219309
0.0006803400457726801
0.0008831581272514843
0.0011123239847513385
0.0013668056368494102
0.001644566489263382
0.0019423693038026044
0.0022557085714043123
0.0025788977921497994
0.0029053184618830683
0.003227810602312737
0.0035391571893995197
0.0038325944884929552
0.004102274480163695
0.00434361593137158
0.004553505003015097
0.004730336228741745
0.004873912649812683
0.0049852426385621415
0.005066279114118912
0.005119644539780579
0.005148376493434452
0.005155717251272006
0.005144959630134739
0.00511935257367846
0.005082064061210848
0.005036195876932843
0.004984844250631348
0.0049312007227736475
0.0048786897397327675
0.004831140341492376
0.004792992730418802
0.004769521447448578
0.004767028801458604
0.00479116850818111
0.004816135964966244
2.1977263675181942e-05
4.6226576061084286e-05
0.00010885757097698708
0.00020182034391673799
0.00032359649785275847
0.0004741600581899658
0.0006540757546620991
0.0008640027748384681
0.0011041875330653837
0.0013739830700318467
0.0016714284183071075
0.001992945428578539
0.002333211980301088
0.00268526011351905
0.0030408175826219623
0.0033908673402096323
0.0037263507362146186
0.0040389043477444585
0.004321509649080753
0.004568955826119803
0.004778060747980324
0.0049476484451437125
0.005078326503739205
0.005172133209273981
0.005232129446778811
0.005262000217943068
0.005265711013349735
0.005247244168389027
0.005210422878911844
0.005158818883510071
0.005095733422274434
0.005024239258815097
0.004947272786554772
0.004867768066622477
0.004788828366733364
0.004713934239383764
0.004647187283291743
0.0045935966918172
0.004559225633132985
0.0045505654543076075
0.004556551078314169
0.00029819560327424513
0.000449120165227965
0.0008496947805432655
0.0017082930318402562
0.0020567439051085937
0.0028120284261577296
0.0031997610623215687
0.003939597430721569
0.00427024559938871
0.004812695979011091
0.005016017676538764
0.005172838061021149
0.005285045498537183
0.005356127666084318
0.005390576242410725
0.005393349086056162
0.004898742082113804
0.004795760274568182
0.0044196806886378755
0.004356110995390083
0.004304830432699789
1.1262275632210144e-05
3.2160118361641096e-05
8.939885761275119e-05
0.00017841808020570973
0.0006324650934515807
0.0011017982661050637
0.001388625204836556
0.0024275471309214798
0.0035793797797093433
0.0045631501044851135
0.005369441774402065
0.005323587961944439
0.0052600847393068405
0.00518272576117965
0.005094820442512025
0.00499927825530571
0.004692993363632407
0.0045934570185640206
0.00450080940823614
0.0043169885177501005
7.136051361110422e-06
2.4111107168790725e-05
7.519535833534306e-05
0.00015903954512089561
0.00027459739340547894
0.00042259348676288946
0.0006048175060126166
0.0008233990317912565
0.0010800073174455952
0.0013750594273901702
0.001706980908982402
0.0020716252310244033
0.002461977737930311
0.002868262838346566
0.003278516581387594
0.003679587096438347
0.004058410187958208
0.004403320110822597
0.004705138314890622
0.00495784465756813
0.005158753597127713
0.005308240279462402
0.005409149413454698
0.005466051480052773
0.00548449558787929
0.005470363813139814
0.005429382149128384
0.0053668004310039015
0.0052872258581117505
0.0051945811681338135
0.005092155688099911
0.0049827221628080225
0.00486869907337275
0.004752346958981615
0.004635994842583765
0.004522298902653382
0.004414544482514708
0.004316991707572002
0.0042353027344795785
0.004176577378231159
0.004153161925575156
5.692219470849449e-06
1.8969728596894047e-05
6.419368522115949e-05
0.00014297359860930353
0.0002543667122103247
0.0003994016432281726
0.0005804542970543847
0.0008003819912810725
0.0010616125862850554
0.0013652035334134995
0.0017099394779514856
0.0020915886194257717
0.002502485487608952
0.002931606542816509
0.003365238698810345
0.0037882080669891394
0.004185473973828841
0.004543767096231191
0.004852924024090389
0.005106661562222183
0.005302702517477436
0.005442335802172871
0.005529605389641731
0.005570352506738188
0.005571300203259819
0.005539301507733225
0.0054808028887134595