# vtk DataFile Version 2.0
time_10.vtk
ASCII
DATASET UNSTRUCTURED_GRID
POINTS   4141  float 
3.9195881239273346e-05        -1.0856723044141369e-18       0.0                           
0.2500000000000003            3.7096510651429676e-05        0.0                           
0.5000359269104542            -2.6347362990771686e-17       0.0                           
0.75                          3.330965785485847e-05         0.0                           
1.0000318493047236            -2.9108471289371372e-18       0.0                           
1.25                          2.8601046959227342e-05        0.0                           
1.500026806800902             4.327386026911274e-18         0.0                           
1.75                          2.2870716888797697e-05        0.0                           
2.000020729306883             -2.514302522128912e-18        0.0                           
2.25                          1.6109002610879718e-05        0.0                           
2.5000136370577413            -1.2726749512996751e-17       0.0                           
2.75                          8.396621044137563e-06         0.0                           
3.00000564606239              1.1422496494586312e-16        0.0                           
3.2499999999999996            -4.8041313696983294e-17       0.0                           
3.499996826673611             -1.8889508831405585e-15       0.0                           
3.75                          -9.57994105242676e-06         0.0                           
3.999987148160912             -1.7132212834003012e-16       0.0                           
4.25                          -1.954439308677803e-05        0.0                           
4.499977039268166             8.353727926229509e-17         0.0                           
4.75                          -2.9922697395661384e-05       0.0                           
4.999966534259602             -5.4225865966180154e-17       0.0                           
5.250000000000001             -4.067588173969699e-05        0.0                           
5.499955654138439             -2.510384026298267e-17        0.0                           
5.75                          -5.183058293558193e-05        0.0                           
5.99994434558567              -9.147581428147764e-17        0.0                           
6.25                          -6.349516778812182e-05        0.0                           
6.499932473148093             1.6284787714211916e-16        0.0                           
6.75                          3.90858101891122e-05          0.0                           
7.000038074779942             2.926271264013351e-06         0.0                           
7.250003130534558             3.582076509032433e-05         0.0                           
7.5000345615998985            3.5761943019107956e-06        0.0                           
7.750003815102387             3.17446784299244e-05          0.0                           
8.000030176155205             4.3177724686370425e-06        0.0                           
8.250004578356938             2.670024043208447e-05         0.0                           
8.500024788745037             5.109876038374335e-06         0.0                           
8.750005377598807             2.061687442110793e-05         0.0                           
9.000018359044176             5.9093567660099e-06           0.0                           
9.250006170581552             1.351358362747824e-05         0.0                           
9.500010934337958             6.677297779187379e-06         0.0                           
9.750006920330748             5.488045350017166e-06         0.0                           
10.000002624629914            7.380459967184033e-06         0.0                           
7.635623353902808e-06         0.2999966100775755            0.0                           
0.24999347065831384           0.30000808629155185           0.0                           
0.5000082842749619            0.2999869917694989            0.0                           
0.7499836697265488            0.30000866548748745           0.0                           
1.0000088494479131            0.29997688043144494           0.0                           
1.2499734189375185            0.30000920783609125           0.0                           
1.5000093844529696            0.2999663713573343            0.0                           
1.749962786365552             0.3000097390863443            0.0                           
2.000009920011527             0.29995548943785627           0.0                           
2.2499517725904963            0.30001029672101936           0.0                           
2.5000104955923708            0.2999441819609587            0.0                           
2.7499402970361615            0.30001092180914746           0.0                           
3.000011151889172             0.29993231305254114           0.0                           
3.249928197578162             0.3000116518575418            0.0                           
3.5000054628428696            0.30003774884424306           0.0                           
3.7500366673365804            0.30000625366524086           0.0                           
4.00000668862694              0.30003424561606007           0.0                           
4.250032890466625             0.30000762599354375           0.0                           
4.500008122717778             0.30002986157439937           0.0                           
4.750028179080561             0.30000915655583693           0.0                           
5.000009687118753             0.3000244646916581            0.0                           
5.250022430901598             0.30001075926900556           0.0                           
5.500011294637239             0.300018013547238             0.0                           
5.750015634306552             0.3000123497245293            0.0                           
6.00001286448055              0.30001055121498243           0.0                           
6.250007854947056             0.30001385903391314           0.0                           
6.500014337887406             0.30000216601194735           0.0                           
6.749999189577852             0.3000152804976108            0.0                           
7.0000157335014155            0.2999930006852474            0.0                           
7.249989796533252             0.30001656715421815           0.0                           
7.500016956959605             0.2999832032082142            0.0                           
7.749979827302681             0.3000177031359787            0.0                           
8.000018063733465             0.2999729383727525            0.0                           
8.249969430711294             0.3000187713105663            0.0                           
8.500019123500897             0.2999622951270344            0.0                           
8.749958666624314             0.3000198390844348            0.0                           
9.000020208598972             0.29995127877289424           0.0                           
9.249947512399993             0.3000209866718589            0.0                           
9.50002140135453              0.29993980919140883           0.0                           
9.749935859096041             0.30002229631242805           0.0                           
10.00002278163249             0.2999277220834638            0.0                           
3.820417732511082e-05         0.6000081726959511            0.0                           
0.25000874622209507           0.6000361304018875            0.0                           
0.500034971002307             0.6000100165683403            0.0                           
0.7500107067914633            0.6000323662467355            0.0                           
1.0000309074401745            0.600012176674853             0.0                           
1.2500129469798662            0.6000276516702494            0.0                           
1.5000258480938269            0.6000145336506117            0.0                           
1.7500153400830376            0.6000218818315928            0.0                           
2.000019719436492             0.6000169552672584            0.0                           
2.2500177552153793            0.6000150444124408            0.0                           
2.5000125376030033            0.600019320784729             0.0                           
2.750020080551305             0.6000072039453338            0.0                           
3.000004385588196             0.6000215474699346            0.0                           
3.2500222549841586            0.5999984783589228            0.0                           
3.499995404765115             0.6000236091800341            0.0                           
3.7500242474702996            0.5999890433179139            0.0                           
3.999985765632379             0.6000254463279371            0.0                           
4.250026014233408             0.5999790456034227            0.0                           
4.49997561360238              0.6000271058614453            0.0                           
4.750027636793202             0.5999686235503825            0.0                           
4.999965069511084             0.6000286885832861            0.0                           
5.2500292180777555            0.5999578453967718            0.0                           
5.499954172800895             0.6000303072696112            0.0                           
5.750030876463652             0.5999466917451552            0.0                           
5.999942873990715             0.6000320876099913            0.0                           
6.2500327385545305            0.5999350526982523            0.0                           
[...]
POINT_DATA  4141
SCALARS Con float 1
LOOKUP_TABLE default
0.00024020158631992718
0.00025842832164487724
0.00029447323069993307
0.0003365693117725342
0.00038409946957600844
0.0004371944266140382
0.0004959537630406637
0.0005603832748992933
0.0006303855147727275
0.0007057579116736734
0.0007861951034332394
0.0008712950191940889
0.0009605680752319819
0.0010534483583065867
0.0011493049356374255
0.0012474499864062118
0.001347142357907597
0.0014475814668513036
0.0015481027615084843
0.0016496831704186732
0.0017638614435039064
0.0018783872750831084
0.001981287810660784
0.002079165364198013
0.0021770504546789237
0.0022746464396705473
0.00237208618956011
0.002469624017290894
0.002567694857840752
0.002666880959047212
0.002767894328714254
0.002871561588811543
0.0029788111675171894
0.0030906614130352538
0.0032082088651403324
0.0033326160175405645
0.00346509661119712
0.0036068775548730543
0.003758858773264507
0.003916963394344047
0.004008010966945282
0.00024390609100006773
0.00026255809083691587
0.0002993318693262862
0.0003422139750926581
0.0003905889326054001
0.000444572542775725
0.00050424943538694
0.0005696095849828926
0.0006405396115535995
0.000716821604304149
0.0007981363198684752
0.0008840704226821524
0.0009741274775850743
0.0010677424110356786
0.0011642995360863274
0.0012631570385439582
0.0013636853360710075
0.0014653912881916094
0.0015681269751030825
0.0016744723563378002
0.0017821003128859279
0.0018879774121576044
0.0019908108550393535
0.0020919366928184185
0.0021909904265306666
0.002289128700863532
0.0023867667644677645
0.0024843600999967424
0.0025824385763674454
0.002681642155187749
0.0027827218066313417
0.002886534065180989
0.0029940324486771434
0.0031062575770622685
0.0032243264540012685
0.0033494206621774297
0.0034827717372242738
0.0036256234511130576
0.0037788859203767033
0.00393854878078201
0.004030600211029717
0.00024182013968158077
0.00026046287755454323
0.0002973122069097763
0.00034037743325258463
0.0003890290439716275
0.00044337754536557405
0.0005035001596390903
0.0005693788483678154
0.0006408920355935188
0.0007178141252186259
0.0007998197424119925
0.000886492725362736
0.0009773402759304633
0.001071813302426916
0.0011693359420363817
0.001269350498792324
0.001371401089847822
0.001475231264216851
0.0015812200411890048
0.0016865459152555693
0.001787252735975068
0.0018877938809300175
0.0019915127013544545
0.0020938867905743695
0.0021942945628730223
0.002293051173063826
0.00239081394939888
0.0024881689826627027
0.0025857445291272707
0.0026842420695425465
0.0027844547801882994
0.002887271247332798
0.0029936726144923083
0.0031047261001946546
0.0032215763575824475
0.003345435070386016
0.003477567289855306
0.0036192539330356308
0.003771450405049841
0.003930163713711631
0.004021698362834734
0.00023820363726740883
0.00025687211513704264
0.0002938635147454213
0.0003372318021525914
0.00038634349239723706
0.0004412981933643727
0.0005021606541736285
0.0005688989472837831
0.0006413768921147023
0.0007193542824511631
0.0008024920256657278
0.0008903623442303076
0.0009824644719841665
0.001078246542164546
0.0011771341929749202
0.0012785661220989439
0.0013820146389203415
0.0014869848464930378
0.0015922123991256687
0.001696068440232289
0.0017984163015558172
0.0018998049474573892
0.0020010067554290744
0.0021022979811593265
0.0022023360996146547
0.0023008710499225426
0.002398181291228271
0.00249479108165815
0.002591332421650463
0.0026885349437390685
0.0027872247341819713
0.002888324625290792
0.0029928514663291007
0.0031019108886366853
0.003216690021585172
0.003338448322300407
0.0034685049052645307
0.0036082020792327627
0.0037585637306450084
0.0039157081525863485
0.004006478140210424
0.00023309125619811475
0.0002517974970875029
0.0002889987391325586
0.0003328031802800323
0.0003825698653735843
0.00043838337643316636
0.0005002902341457662
0.0005682381262232143
0.0006420688536767584
0.0007215189885880596
0.0008062252836827905
0.0008957348028075886
0.0009895196467003405
0.0010869954209796352
0.0011875408626575133
0.0012905088716216235
0.0013952151740276948
0.0015007960575626708
0.0016062635941195434
0.001710794798879656
0.0018139290784690621
0.0019158588259493474
0.0020168994959600148
0.0021169597461324794
0.002215865931032658
0.002313343212935527
0.002409498157276152
0.002504719908783734
0.00259959103340294
0.0026948339808489812
0.002791291208772325
0.002889915059703205
0.0029917610351789174
0.0030979813360425216
0.0032098177845155
0.003328593376885825
0.0034557005928546737
0.0035925659361773703
0.0037403125307832632
0.003895214572192419
0.003984881912133154
0.00022643791309945302
0.00024520111816091764
0.0002826875950798023
0.00032706960988362015
0.00037769518953678595
0.0004346286376589088
0.0004978922832118013
0.0005674065887347504
0.0006429834560532015
0.000724326928553592
0.0008110382644690808
0.0009026251149466287
0.0009985141797757503
0.0010980657224937632
0.0012005861825632941
0.0013053335674424208
0.0014115010430694288
0.0015182310606633453
0.0016246776561197336
0.0017301291696693933
0.0018341730833449966
0.001936658515831461
0.002037573868176626
0.002136912716539973
0.0022345802599486805
0.0023305621371753774
0.0024249824134760407
0.0025181879856365544
0.0026107242007583813
0.0027033027132652666
0.00279677703358132
0.0028921275198602945
0.002990451186958023
0.003092953764675865
0.0032009424081114665
0.0033158179146119994
0.0034390641417352784
0.003572214201207768
0.003716518539732021
0.0038684540981568007
0.003956654822769566
0.00021819863566610576
0.00023704206512587293
0.0002748983450663553
0.000320009445967508
0.00037170810838494853
0.000430032855895592
0.0004949757265700158
0.0005664231841968406
0.0006441495242502755
0.0007278172888690123
0.0008169816812209214
0.0009110986546007787
0.0010095360451600963
0.0011115863728642019
0.0012164794345856011
0.0013233924415821296
0.0014314665268995528
0.001539837362847525
0.00164769384439614
0.0017543583542307356
0.0018593381732341348
0.00196233576566563
0.002063194890353718
0.0021618335426132024
0.0022582333238244877
0.002352452453821236
0.002444688934515181
0.0025353085139661084
0.0026248584173416177
0.002714056148093421
0.0028037739959863046
0.0028950253903214664
0.002988954466666498
0.0030868279695088793
0.00319002844718092
0.0033000475854074226
0.003418477291371014
0.0035469781975237947
0.003686954682379663
0.0038351347251321635
0.00392146689540834
0.00020833424953079293
0.00022728526374156218
0.00026560445402810473
0.0003116060804868671
0.00036460244760602115
0.0004246005647676273
0.0004915562743716188
0.0005653157577648047
0.0006456087263447648
0.0007320482625253961
0.0008241344365072948
0.0009212615882282612
0.0010227289820928603
0.001127754300856714
0.00123548947762603
0.0013450404403912639
0.0014554933781785327
0.0015659523882000257
0.0016755880884560537
0.0017836870037551925
0.001889688915637685
0.001993195014813676
0.0020939525743275903
0.0021918328290370156
0.002286817207844148
0.002379008833184896
0.0024686505608804894
0.0025561467463145336
0.0026420715613419228
0.0027271681659635323
0.002812340765400179
0.002898645244242525
0.002987280827918065
0.0030795834742642493
0.0031770206821317244
0.003281186855164424
0.003393796888683768
0.0035166579233119164
0.003651353522478234
0.0037949135914804154
0.0038789302657335316
0.0001968217095519111
0.00021591027877369674
0.0002547917328552198
0.00030185307133231705
0.0003563802441761127
0.0004183429691820136
0.0004876555087055134
0.0005641183877114275
0.0006474109167919491
0.0007370900587247499
0.0008325930819531375
0.0009332442337991841
0.0010382656445729855
0.0011467925385697402
0.001257893114147251
0.0013705937756731334
0.0014839109365600623
0.001596889375853649
0.0017086444681009875
0.0018184023755429641
0.001925529726665159
0.002029548420361137
0.00213013625954833
0.002227120625261914
0.002320474934833197
0.0024103206523580873
0.0024969360226090942
0.0025807642542837726
0.0026624187994326704
0.0027426828992630193
0.0028225054038724545
0.002902994906212876
0.0029854142933792844
0.0030711766983538913
0.0031618430062647037
0.0032591203112201646
0.0033648591032698146
0.0034810295739473437
0.0036094178272709164
0.0037474082069807895
0.0038286103040786282
0.00018366630504427513
0.0002029222067555963
0.0002424665840591378
0.00029075959643923424
0.00034705434207007063
0.0004112777150502915
0.0004832979569472965
0.00056286594859573
0.0006496063144817355
0.0007430146675211632
0.0008424588613651791
0.0009471849312464127
0.0010563283848995671
0.0011689313161595371
0.0012839656350225465
0.0014003625329103357
0.0015170477480205206
0.0016329811368956768
0.0017471974478455938
0.001858843742491756
0.0019672089971034703
0.0020717430478026356
0.002172065448797161
0.0022679676900061747
0.0023594128613026425
0.0024465361706256733
0.0025296464928793393
0.002609228125210748
0.002685940976071142
0.002760618700195914
0.002834265195352303
0.0029080508507952907
0.0029833097413658276
0.0030615386627249894
0.003144398193963223
0.0032337153295796824
0.0033314855414630783
0.003439855216282487
0.003560833316064344
0.0036922120337594226
0.003770042709633664
0.00016891629233277826
0.0001883644252186481
0.0002286652905877873
0.00027835601024395185
0.0003366501665119532
0.00040342698494148083
0.0004785057912312225
0.000561585818129467
0.0006522347255262181
0.0007498831561191187
0.0008538237464632906
0.0009632158067943131
0.0010770967524247846
0.0011944009705739025
0.0013139862677741584
0.0014346673912655687
0.0015552552773450963
0.0016745996815883096
0.001791631880124017
0.0019054036732338731
0.0020151192450243213
0.0021201578901137285
0.0022200875400669806
0.002314670763920634
0.0024038658372288815
0.0024878250776276954
0.0025668920077389907
0.0026415976462163416
0.002712656312513474
0.002780961075187761
0.0028475796120951335
0.002913751404121915
0.002980887204654568
0.0030505713908397635
0.003124567324440469
0.0032048252567057167
0.0032934906565409384
0.003392894606362796
0.003505284867867174
0.0036289146818926613
0.0037027557409822637
0.00015267984303900137
0.0001723331297352912
0.00021346402566069095
0.0002646990601423116
0.0003252061400478684
0.00039481334852642326
0.00047329057185947055
0.0005602862234559807
0.0006553114159468776
0.0007577301910068085
0.0008667549558611536
0.0009814489685258103
0.0011007374417813466
0.0012234281612650251
0.001348241588915465
0.001473849424847494
0.0015989195085667496
0.001722163986060033
0.0018423869972360846
0.001958528063698101
0.0020696979059027427
0.002175204711254547
0.0022745703680372357
0.0023675377164204575
0.002454070679528118
0.0025343495097743104
0.00260876315613395
0.002677900280265738
0.002742540305023899
0.0028036455336038955
0.0028623554540937123
0.0029199842347238034
0.002978022199636165
0.003038141770650934
0.0031022078903904385
0.003172292367934541
0.003250690026417501
0.003339919094424637
0.0034424761558667404
0.0035571269803321218
0.003626298187582347
0.0001351439534112413
0.0001549931639970419
0.00019698902125879768
0.0002498760940549019
0.0003127720169122805
0.0003854525861338389
0.0004676412589845453
0.0005589404528010785
0.0006588088445269123
0.0007665449049046151
0.0008812767854071652
0.0010019612394166937
0.0011273938041418447
0.0012562314178201715
0.0013870273164453492
0.0015182765921897088
0.0016484694272435685
0.0017761479525412432
0.0018999621155213317
0.002018720069058576
0.002131429382525178
0.0022373267914772175
0.0023358957534235425
0.0024268727008513306
0.0025102439250701547
0.0025862357063546632
0.002655300443658889
0.002718101244734237
0.0027754973243042744
0.0028285319305744205
0.002878424427245145
0.0029265676406543747
0.002974531322830141
0.0030240721151905785
0.0030771499375157317
0.0031359501291882545
0.003202909192599487
0.003280727404843165
0.003372152616048907
0.0034765109975821128
0.003540273196725915
0.00011659426001451937
0.00013659413874509327
0.00017942587309953666
0.00023400730968767646
0.0002994042398023568
0.00037534268260824475
0.00046150768696493193
0.0005574660731696559
0.0006626333284961389
0.0007762470871778128
0.0008973486205866259
0.0010247762468115265
0.001157173851109868
0.0012930161173840317
0.0014306501459150846
0.001568351105231901
0.0017043877038193538
0.0018370919423656147
0.001964927057030811
0.0020865478444499898
0.0022008488065547813
0.0023069972594583314
0.002404450665323832
0.002492959301088583
0.0025725569033808776
0.002643542752164665
0.0027064590063979152
0.0027620668893297055
0.0028113248506232338
0.002855371302471826
0.002895513778184563
0.002933225945176146
0.0029701532296673556
0.003008127439691214
0.0030491902405539346
0.003095624759130919
0.0031499929497087243
0.0032151630799762175
0.003294127467241866
0.0033868147873138085
0.0034443779285723507
9.743377467265613e-05
0.00011748499773609957
0.00016102648007529976
0.0002172448456327128
0.0002851575344681111
0.00036444839466997136
0.00045477895960170433
0.000555698549000624
0.0006665959451143748
0.0007866580049378909
0.0009148385622212752
0.0010498435988103923
0.0011901371723749162
0.0013339703101567751
0.0014794323710786992
0.0016245213989554102
0.0017672274904541852
0.0019056213057683053
0.002037939231897226
0.002162657357844139
0.002278548205947909
0.002384716769086514
0.0024806152825144943
0.0025660387226155478
0.002641104961296413
0.0027062246718192596
0.002762066213653847
0.0028095205384305088
0.0028496701608432774
0.0028837654542925627
0.0029132104200382627
0.0029395593747772435
0.002964525224954929
0.0029899996000900585
0.003018084698285633
0.003051136223807001
0.003091815241945967
0.003143133280340536
0.0032083102580577607
0.0032879111978479547
0.0033384482163979112
7.819727988034772e-05
9.812411639991969e-05
0.00014211137168627843
0.00019976766247141372
0.00027007243549912146
0.0003526815960906764
0.00044725694529571203
0.0005533591751296453
0.0006703775027822351
0.0007974657551183223
0.0009334928256642915
0.001077015835789016
0.001226282214491805
0.001379263884481129
0.0015337228027497464
0.001687302902086938
0.0018376396158771321
0.0019824755589820105
0.002119770112289183
0.002247791827827825
0.002365185526345809
0.0024710099701813074
0.0025647462300726846
0.002646280473271599
0.0027158675448898835
0.002774082766143747
0.0028217695277509476
0.0028599892452126153
0.0028899788739413534
0.0029131196748102303
0.0029309194779838605
0.0029450095603542068
0.002957156531040827
0.0029692891024236143
0.0029835395606447744
0.003002299731940694
0.0030282902511302844
0.003064629841507328
0.0031147369421586774
0.003179839441864221
0.003222507874583716
5.9555487955395716e-05
7.908028646538716e-05
0.00012306524366630773
0.00018177151016165324
0.0002541602350343369
0.00033987892560521617
0.00043862547838995227
0.0005500179959168562
0.0006734884469619748
0.0008081861786901396
0.0009529021728023356
0.0011060248762218157
0.0012655364965841898
0.0014290546527283244
0.001593918599204122
0.0017573129133349997
0.0019164155140875667
0.0020685529178878356
0.002211344463310113
0.002342819518883286
0.0024614965203508983
0.0025664192503523802
0.0026571521856788034
0.002733741973586012
0.002796655345576735
0.002846704744498377
0.0028849722102712505
0.0029127402077204316
0.0029314354518874754
0.0029425896845944204
0.0029478190778495206
0.002948822776169423
0.0029474000795989136
0.002945485555863775
0.002945201464029081
0.0029489273695422254
0.0029593880625903087
0.002979752003661799
0.003013603652027552
0.003062846818464861
0.00309681554659346
4.230500768631148e-05
6.101950430474389e-05
0.00010432149741603938
0.00016345927881626488
0.00023738957650560358
0.00032577656016688456
0.00042841652050698044
0.000545054343891906
0.000675226833078437
0.0008181223928464714
0.0009724682927548158
0.0011364610839338855
0.0013077535627660372
0.0014835063607672582
0.0016605042209879778
0.0018353265981126445
0.0020045529392746083
0.0021649761302722863
0.0023137963485892863
0.0024487714135354994
0.0025683084715472197
0.002671492499556988
0.0027580572692702462
0.002828311893497167
0.002883039771739401
0.0029233869777436547
0.00295075468648237
0.0029667064307660434
0.0029728969086475618
0.002971025514098828
0.002962815129351311
0.0029500151371828604
0.002934426849672253
0.00291794956818968
0.00290264586944035
0.002890825705174813
0.0028851493160687225
0.0028887519341004044
0.0029052951265557707
0.0029374320846168294
0.0029619272821116652
2.7315370544773113e-05
4.466640816488615e-05
8.635803852510547e-05
0.0001450394724745175
0.00021966252192197127
0.00030998056585967505
0.0004159788765627899
0.0005376228265328817
0.0006746420713800808
0.0008263294454478399
0.0009913754236904491
0.001167759757129363
0.0013527219551567131
0.0015428251661474598
0.0017341156119068698
0.0019223632780874592
0.0021033533917242594
0.0022731869036335074
0.002428546116305815
0.002566889138222709
0.0026865524248257445
0.0027867587906302677
0.002867544553241713
0.00292962963429289
0.0029742582666628745
0.003003035619639123
0.0030177799111978008
0.0030204026428700343
0.003012822989035262
0.002996917423784695
0.002974502474094507
0.0029473470014038227
0.0029172103717221127
0.0028859031499087057
0.0028553684290072456
0.0028277823956589475
0.002805674777567162
0.002792058630526737
0.0027905426330416005
0.0028043599265149665
0.002818646837384746
1.558705418855177e-05
3.081583061832508e-05
6.968861856034712e-05
0.00012668231631287626
0.00020080266488100212
0.00029198729070911705
0.0004005119222939947
0.0005266896770374826
0.0006705677669318328
0.0008316438402384791
0.0010086222272566443
0.001199244792584176
0.0014002310338160717
0.0016073546557787526
0.001815664559062043
0.0020198311494301125
0.002214569999717273
0.002395075046329368
0.0025573896437569546
0.002698658977415142
0.002817235787607742
0.0029126433105049264
0.002985425101307658
0.0030369251749907604
0.0030690429810638718
0.0030840003016368842
0.0030841447487953296
0.0030718025421571163
0.003049183339534392
0.0030183334836534105
0.0029811308512981373
0.0029393138396844242
0.0028945380631742105
0.0028484561590259084
0.0028028183754555233
0.002759593606304787
0.0027211106867439023
0.0026902242412436173
0.0026703992635323756
0.00266535279313158
0.002668728094307492
0.00018539966990538588
0.00027705852518267936
0.0005187686436837806
0.0010320470051315427
0.0012388381419610797
0.001684206447368267
0.001911258429252024
0.002341130095704151
0.0025315614734617428
0.002840879758474419
0.00295535800059268
0.003042690461299465
0.0031042064207296724
0.003142113282934038
0.0031591447319162234
0.0031582509903668892
0.002865533229846529
0.002806069185062017
0.002589570334781708
0.0025529825827790347
0.0025233637257944816
8.235596802553536e-06
2.157098067628226e-05
5.74108214396093e-05
0.00011224656234330599
0.0003879204704556989
0.0006700727116577475
0.0008415952880033867
0.0014579834817454427
0.002132423415806546
0.0026991503559967833
0.0031423582027151247
0.0031142051509920805
0.0030762526615049773
0.0030306541714036194
0.0029792741669483415
0.0029237421751438903
0.0027468389500666115
0.002689538911613932
0.0026362385677335077
0.002530419031142327
5.104523236629545e-06
1.6154371878693138e-05
4.841989313475062e-05
0.00010027804028143154
0.00017104264594266613
0.0002611120168690574
0.00037149421762196384
0.0005033661344540545
0.0006575919842679359
0.0008342524246768768
0.0010322123985940256
0.001248793133737968
0.0014796234244281044
0.0017187382278566806
0.0019589551756613722
0.002192497486810009
0.0024117631836508414
0.0026100924598412355
0.0027823815317404087
0.00292543462984407
0.003038019742710387
0.0031206656130813343
0.0031752857361699136
0.003204728581749993
0.003212340020643979
0.0032015951304352713
0.0031758268909841455
0.0031380548626699254
0.0030909020692145113
0.003036581725431527
0.002976934805563805
0.0029135029582354113
0.00284762538430319
0.002780553694980216
0.0027135829582945097
0.0026482006550056243
0.002586260257612376
0.0025301798787755922
0.002483189003849425
0.002449351637115893
0.0024358216364414086
3.7070719264019697e-06
1.2584125997998176e-05
4.142131153257803e-05
9.034415728460208e-05
0.00015873444840433157
0.00024718021394598555
0.00035704368660676274
0.0004899335290411151
0.0006471555159721206
0.0008291507764949203
0.0010349660565232741
0.0012618307327822743
0.001504941656819183