# vtk DataFile Version 2.0
time_10.vtk
ASCII
DATASET UNSTRUCTURED_GRID
POINTS   4141  float 
7.057979533933754e-05         -2.1687921576872903e-17       0.0                           
0.2500000000000016            6.73211139032108e-05          0.0                           
0.5000654326917572            -3.3088432989652235e-17       0.0                           
0.75                          6.10656926972073e-05          0.0                           
1.0000585632746959            -5.052999628534532e-17        0.0                           
1.25                          5.2875546675848833e-05        0.0                           
1.50004967846924              -9.182625698321878e-17        0.0                           
1.75                          4.2564637244961986e-05        0.0                           
2.0000386490634976            -8.404497918122263e-17        0.0                           
2.25                          3.011971903817102e-05         0.0                           
2.500025520360578             -1.8072338112227943e-17       0.0                           
2.749999999999998             1.5711164250382862e-05        0.0                           
3.0000105442604355            2.473616024220534e-17         0.0                           
3.25                          -1.9307662216792512e-17       0.0                           
3.4999937839198014            -9.087799795076591e-17        0.0                           
3.75                          -1.866241267172045e-05        0.0                           
3.999974981868743             -4.969695296740987e-17        0.0                           
4.25                          -3.8054769170120905e-05       0.0                           
4.499955268587919             1.3927706812434495e-16        0.0                           
4.75                          -5.8384855203008096e-05       0.0                           
4.999934642342557             -6.223392487740584e-17        0.0                           
5.250000000000001             -7.959714636507405e-05        0.0                           
5.499913129949145             4.1868270973205934e-17        0.0                           
5.749999999999999             -0.00010175262312666405       0.0                           
5.9998906195387               1.312446293306078e-16         0.0                           
6.25                          -0.00012506887750646608       0.0                           
6.499866841544659             5.670245398067587e-16         0.0                           
6.75                          7.033541262058367e-05         0.0                           
7.000068789957696             4.537847353813731e-06         0.0                           
7.2500049844880285            6.519572346792003e-05         0.0                           
7.500063116436809             5.947707572112471e-06         0.0                           
7.75000645950909              5.8329100487814945e-05        0.0                           
8.000055600879925             7.529604217828005e-06         0.0                           
8.250008081887488             4.9440383006751356e-05        0.0                           
8.50004600055224              9.205542467152394e-06         0.0                           
8.75000977083999              3.83989493332361e-05          0.0                           
9.000034242366544             1.0893860761707872e-05        0.0                           
9.250011446130378             2.524570749177489e-05         0.0                           
9.500020422553389             1.2519193738813115e-05        0.0                           
9.750013034602404             1.0176491885415883e-05        0.0                           
10.000004752810435            1.4011308033205341e-05        0.0                           
1.4586808056972416e-05        0.299993251689977             0.0                           
0.24998719655343438           0.30001558473214535           0.0                           
0.5000160133793897            0.2999746388361811            0.0                           
0.7499681773533784            0.3000168472721201            0.0                           
1.000017253176792             0.299954925699388             0.0                           
1.2499481455363988            0.30001804891741324           0.0                           
1.5000184427849081            0.29993429208662836           0.0                           
1.7499272202686385            0.3000192350018776            0.0                           
2.0000196389529403            0.29991277617867634           0.0                           
2.249905393819216             0.3000204772647906            0.0                           
2.5000209175471495            0.2998902679947391            0.0                           
2.749882502416252             0.3000218545192238            0.0                           
3.0000223563601764            0.2998664971764209            0.0                           
3.2498582254037256            0.3000234379264073            0.0                           
3.5000082179388667            0.30006806489150406           0.0                           
3.750066364576222             0.3000099550414874            0.0                           
4.000010898196158             0.3000624101018167            0.0                           
4.250060127836282             0.3000129112498058            0.0                           
4.50001397032403              0.3000548969024552            0.0                           
4.750051931837292             0.3000161638755479            0.0                           
5.000017286005395             0.3000452776342886            0.0                           
5.250041584989024             0.30001955033138505           0.0                           
5.500020680777676             0.30003347518688567           0.0                           
5.750029066193993             0.3000229111748213            0.0                           
6.000024001633202             0.30001957043389255           0.0                           
6.250014496427556             0.30002611583620753           0.0                           
6.500027140044257             0.3000037063733066            0.0                           
6.749998026028895             0.3000291925852532            0.0                           
7.000030189390099             0.2999861466602648            0.0                           
7.249979959598853             0.3000320145508614            0.0                           
7.500032868493537             0.29996716441519206           0.0                           
7.749960585839571             0.30003451368186734           0.0                           
8.000035313704519             0.29994711040158084           0.0                           
8.249940223916338             0.3000368906567533            0.0                           
8.500037677658126             0.29992616464171284           0.0                           
8.74991899035344              0.3000392766097318            0.0                           
9.00004010041239              0.2999043330800428            0.0                           
9.249896835971846             0.3000418267395122            0.0                           
9.500042740981867             0.2998814539232075            0.0                           
9.749873542762334             0.30004469871851613           0.0                           
10.000045751690708            0.29985720175487696           0.0                           
6.837820834932327e-05         0.6000122860269641            0.0                           
0.25001355194605385           0.6000651679310821            0.0                           
0.5000632987159309            0.6000163165088149            0.0                           
0.7500178023844606            0.6000589550485536            0.0                           
1.0000564553166569            0.6000209418691155            0.0                           
1.2500225777749663            0.6000507524976075            0.0                           
1.5000475369334505            0.6000259354855256            0.0                           
1.7500276386403804            0.6000403626776616            0.0                           
2.0000364043222847            0.6000310487324482            0.0                           
2.2500327391406043            0.6000277598208166            0.0                           
2.500023083908292             0.6000360551922626            0.0                           
2.7500376704314564            0.6000130559887247            0.0                           
3.0000077177410738            0.6000408092074249            0.0                           
3.2500423373585052            0.5999964579145116            0.0                           
3.4999905686955857            0.6000452880941822            0.0                           
3.7500466852186944            0.5999783154325729            0.0                           
3.999971969204116             0.6000493166306188            0.0                           
4.250050568905591             0.5999588974740133            0.0                           
4.4999521938136935            0.6000529894666798            0.0                           
4.750054172502238             0.599938487786598             0.0                           
4.999931493480846             0.6000565230129228            0.0                           
5.250057707392964             0.5999172260857961            0.0                           
5.499909947876011             0.6000601392419838            0.0                           
5.750061405131964             0.5998950727993007            0.0                           
5.999887457415389             0.6000640822186218            0.0                           
6.2500655105688026            0.5998718088387689            0.0                           
[...]
POINT_DATA  4141
SCALARS Con float 1
LOOKUP_TABLE default
0.0005434221571719312
0.000607272583375223
0.0007321864447579544
0.0008800455501779569
0.0010492518816996204
0.0012406126032142104
0.0014547798677241094
0.0016920363796451678
0.001952257430578084
0.002234899742495715
0.0025390057079087516
0.0028632208741899683
0.003205821588211377
0.0035647473202133077
0.0039376284148545946
0.004321793053536413
0.004714244573314329
0.005111625718232355
0.005511179779412823
0.005920582547381546
0.006405967632732807
0.006895902878652083
0.0073214024334981335
0.007725353638514505
0.008133494108061938
0.00854405762084723
0.008957194294375812
0.009373558143700887
0.009794601196446328
0.010222405778112334
0.0106595977722238
0.011109274408566462
0.011574944923597364
0.01206047604901145
0.012570038546519297
0.01310805189513194
0.013679120249458106
0.01428788059033502
0.014937659216408392
0.015611459877462187
0.01600035529416984
0.0005531148423576561
0.0006185869652174541
0.000746149858407153
0.0008969262805450565
0.0010693218491278427
0.0012640917079994405
0.0014818335346793445
0.0017227714556989069
0.001986721307574777
0.0022730826839903514
0.0025808472674518474
0.0029086221497469735
0.00325466715679378
0.003616945687946981
0.00399319153013012
0.0043810099292084185
0.004778065683528118
0.005182730358953652
0.0055954751674437975
0.006030464900333285
0.006476805126970192
0.00691851143428592
0.007347958597139527
0.007770500721379229
0.008186040344741474
0.00860042028573262
0.00901541517986541
0.009432766115312363
0.009854430137773028
0.010282784935379425
0.010720647718425892
0.011171257405986275
0.011638238979471423
0.012125560377972175
0.01263748454045893
0.013178516593540667
0.01375334038413314
0.014366667835726255
0.01502186784396933
0.01570219693311066
0.016095325576341912
0.0005471427354039387
0.0006124829140009802
0.0007401483499082005
0.0008913850826994185
0.0010645698286437368
0.0012604505577474025
0.001479610344847236
0.0017222569261696504
0.0019881901471059224
0.002276797493063069
0.0025870678724488165
0.0029176244659556276
0.00326677954940208
0.0036326183485488038
0.004013130147718962
0.004406424829646809
0.004811157600110588
0.005227068682227141
0.005657020698241542
0.006087241447993919
0.006494474142233027
0.006904397471383678
0.00733799193604277
0.007769077197438772
0.008193200442199669
0.008612148937828783
0.009029035342033063
0.0094463679708484
0.009866660816983818
0.010292634172063326
0.010727333261512243
0.011174163747614398
0.011636888895064864
0.01211960534591228
0.012626706427116611
0.013162836192890102
0.013732829947927582
0.014341562460892205
0.014992585103062154
0.015669170697737655
0.016060191699379042
0.0005367415332780231
0.0006020245913741711
0.0007298983791411905
0.0008818816382162788
0.0010563620241467303
0.001254068561807573
0.0014755587939477477
0.001721010189919516
0.0019901907335177615
0.00228245776108995
0.0025967761680703856
0.002931757409373354
0.0032857224102842077
0.00365679333763416
0.004043018801757647
0.004442533312520587
0.004853636219084378
0.005274691528483103
0.005699886383316104
0.0061205495529098935
0.006536659952230647
0.006951968720066079
0.007371312875239434
0.007796586767700423
0.00821985499477431
0.00863910220102487
0.009055307497905616
0.00947058620265389
0.009887452160605248
0.010308762165420517
0.010737723028492028
0.011177906093829487
0.011633244185384813
0.012108013234875871
0.01260680163223901
0.013134469030435383
0.013696089492231096
0.014296800023831067
0.014940430779041775
0.015610681184616702
0.015998603931980212
0.0005220726716958945
0.0005872715084203271
0.0007154619173556638
0.0008685151563689198
0.001044829609122811
0.0012451077020351675
0.0014698678027969326
0.0017192402828207771
0.0019929402488866803
0.0022902679209046138
0.0026101274554348563
0.0029510645696422893
0.003311322844921242
0.0036889148753830106
0.004081694542701276
0.0044873778094928814
0.004903426612225731
0.005326243305369514
0.005751293169056125
0.006174887851028395
0.006595121777195974
0.007013666830788588
0.0074327563919267805
0.007852028009683
0.008270345941582082
0.00868567702611693
0.009097902643921837
0.009508323573992162
0.009919124108066543
0.010333078073748647
0.010753443550707757
0.011183915927260531
0.011628599624652312
0.01209198053446713
0.012578893523782173
0.013094482007336544
0.013644142177497435
0.014233372518195033
0.014866416903636978
0.015527625330336572
0.015911140321460782
0.0005030455985949202
0.0005681536765683159
0.0006967798224629179
0.0008512396711838511
0.0010299402840606296
0.0012335461882896845
0.0014625219715796497
0.001716932509782402
0.0019964167223756736
0.002300187176515628
0.0026270458695274654
0.0029754151225826384
0.0033433805041878525
0.003728737410672941
0.004129021290301173
0.004541491554441502
0.004962996052183154
0.005389983014080574
0.005818840488293739
0.006246518389982388
0.00667147790339704
0.0070934461130024926
0.007512721554817524
0.007929397449973301
0.008342780677123053
0.00875233898588424
0.009158053481942407
0.00956092973355955
0.009962886421958509
0.010366579956476926
0.010775275384566234
0.011192769744773751
0.011623341759940667
0.012071712627852733
0.012543008712060053
0.01304272034963046
0.013576647572490117
0.01415075368045143
0.014769831721055688
0.0154190702516448
0.015796696016072274
0.00047959499353688776
0.0005446098075920893
0.0006738036983996145
0.0008300206135865481
0.0010116726296475593
0.0012193741723177192
0.0014535212036830573
0.0017140953058423526
0.0020006370809091062
0.002312243103298094
0.002647576670170954
0.0030048908620542805
0.0033820606316519097
0.0037766169359007436
0.004185773429172597
0.004606435741796887
0.005035242086538363
0.005468693032085882
0.005903433888255305
0.006336679975088094
0.006766470460630176
0.007191713425652836
0.007611868741922919
0.008026556837235592
0.008435485142621131
0.008838511484259593
0.00923600966907646
0.009629051193168545
0.010019506935635856
0.0104100028866239
0.0108038444566168
0.011204947991299624
0.011617787285224652
0.012047350249075493
0.012499099996455678
0.012978934807690991
0.013493137338166965
0.014048234818269372
0.014649687478995753
0.015283715244368506
0.015653809333494237
0.000451700395800027
0.0005166208188920426
0.0006465191553598536
0.0008048513093515853
0.0009900281232887776
0.0012026012039918718
0.0014428843084116395
0.0017107606804896867
0.0020056546588160806
0.0023265245355871484
0.002671867562578973
0.0030397365420429716
0.003427766631157484
0.0038332101332290785
0.004252978195128453
0.004683700243489306
0.005121820517246877
0.0055637595747949015
0.0060061446872631975
0.006446047233058658
0.006881163516396464
0.007309838447587692
0.007730968239483152
0.008143869597160798
0.008548198165914424
0.00894401421306281
0.00933189344729704
0.00971306809542045
0.010089496349066343
0.010463878064021912
0.010839625286867167
0.011220818726280784
0.011612164785161127
0.012018957360466707
0.012447043208910168
0.012902787203874309
0.013393028345888914
0.013924948746265509
0.014504791046346912
0.015120023827258824
0.015480745433447646
0.000419423291355624
0.000484240671038867
0.0006149705301205461
0.0007757698765161844
0.0009650401234006784
0.0011832575115286869
0.0014306427087475665
0.0017069702895430184
0.00201153670965633
0.002343147421121022
0.0027001154525013974
0.0030802726584844126
0.0034809949587346193
0.0038992430371781526
0.004331622388800556
0.004774469608397004
0.00522397468792554
0.0056763429934268105
0.0061279833358428935
0.006575692385681897
0.007016788687819113
0.007449174857984989
0.007871330659397095
0.008282275761696298
0.008681554041359703
0.00906925416659589
0.00944607342867438
0.00981338392370441
0.010173284650134043
0.010528620044800728
0.010882972657915777
0.011240639650591959
0.011606604417370013
0.011986509194987267
0.012386630056927436
0.012813852293850363
0.013275637625663438
0.013779906953509067
0.014333798154797982
0.01492625808253204
0.015275532440851461
0.0003829488021335502
0.0004476331648510404
0.0005792878909496646
0.0007428760209977727
0.0009367800687329268
0.0011613895288269593
0.00141682540470694
0.001702749916260479
0.002018328010833757
0.0023622061111392917
0.002732502434622866
0.0031268122709879206
0.0035422319635332344
0.003975405378019584
0.004422596794908982
0.004879794097700272
0.005342843608761946
0.005807611738922603
0.006270159656314022
0.006726908128653116
0.0071747703225893905
0.007611237836257129
0.008034423173228158
0.008443075917999166
0.008836592944109236
0.009215039492063681
0.0095791802476808
0.009930514570947669
0.010271302767250152
0.010604578140741228
0.0109341439571045
0.011264561045619183
0.011601131861078428
0.011949885908891377
0.012317568197428363
0.012711629418460506
0.013140209825444657
0.013612042395995028
0.014135264753987126
0.014700541076623623
0.015036028864430506
0.00034263309901857634
0.0004071127321084851
0.0005397157045625861
0.0007063466160671199
0.0009053596122480465
0.0011370485871647737
0.0014014346847812434
0.001698073002367607
0.0020260032414987747
0.002383715784563701
0.002769130057540577
0.0031795910003594823
0.003611889587799471
0.004062312476403562
0.0045267243389403205
0.005000683975459606
0.005479591305054346
0.005958856964199219
0.00643408050908136
0.0069012199544488655
0.00735673624059092
0.0077977027936855375
0.008221879259328109
0.00862775663751811
0.00901458507524386
0.00938239322670856
0.009732004471923864
0.01006504915987264
0.010383971456429445
0.010692028984299651
0.01099328677274124
0.011292608790031949
0.01159565129573634
0.011908861220903405
0.012239480862128586
0.012595557502986294
0.012985949974338242
0.013420260160763612
0.013907715376956606
0.014440940395679142
0.014760015104818051
0.0002990550080782797
0.0003631879036139054
0.0004966413979502799
0.00066644836077242
0.0008709270366444357
0.0011102713566907983
0.0013844115354080416
0.001692812742118997
0.002034408306140552
0.0024075465296865307
0.002809951110629861
0.00323870379816098
0.003690257595991534
0.0041604869441275024
0.004644778263442346
0.0051381602169273365
0.005635468114284197
0.006131531812297059
0.006621372355101509
0.0071003908536063365
0.007564534743331919
0.00801043130121261
0.008435484768668075
0.008837939642199392
0.009216916302425934
0.00957242656821305
0.009905375501890303
0.010217554123133821
0.01051162658155792
0.010791114900680668
0.01106038488022941
0.01132463721878711
0.011589907476077467
0.011863077521647203
0.012151899133062397
0.012465027917351454
0.01281205937576754
0.013203497793546681
0.013649727975499217
0.014145576099279519
0.014445313416621346
0.000253068410573383
0.0003166043334493118
0.0004506210575728774
0.0006235450847443988
0.0008336559000670637
0.0010810502858007965
0.0013655892880730595
0.0016866814437476554
0.0020431891699876853
0.00243334684566434
0.0028546945113852966
0.003304039375825144
0.003777456529127374
0.004270337236888482
0.0047774886459851385
0.005293283028291352
0.0058118486281736265
0.006327288623699421
0.006833910802996642
0.0073264493893218955
0.007800262183857483
0.008251490857169792
0.008677178145593958
0.00907534190500427
0.009445010705594198
0.009786228613773667
0.010100037977130867
0.010388448740704484
0.010654402392065753
0.010901737550876138
0.011135163673113627
0.011360248218550887
0.011583421563346415
0.011812002161885212
0.012054242318374908
0.01231939214085588
0.01261777305877325
0.012960794301453313
0.013360035486864442
0.013812753661582374
0.014089937554952983
0.00020584996009371097
0.00026838223254023263
0.0004023981833682815
0.000578096630211894
0.0007937237633741476
0.0010492926975536711
0.0013446345384129155
0.0016791560931094047
0.0020517066233195556
0.002460453997445759
0.0029027792472215647
0.003375206594388023
0.0038733848420530437
0.004392131457836715
0.004925544292662066
0.005467178070107147
0.006010274785699638
0.006548030189041961
0.007073873974151399
0.007581739970656692
0.008066305034748495
0.008523180616676337
0.008949048228790316
0.009341737502817606
0.00970025208805049
0.010024753253239566
0.010316513683554178
0.010577854661340001
0.010812079186860321
0.011023412225249947
0.011216957237152821
0.011398676347277821
0.011575399112632844
0.011754862810601447
0.011945784605275877
0.012157962823613352
0.012402397433584289
0.01269136658650367
0.013037642750000106
0.013441121419726738
0.013692272613082033
0.0001589325021491636
0.0002198402007902296
0.0003529097272239246
0.0005306458784966852
0.0007512798243362594
0.0010147687974111591
0.0013209761909999233
0.0016693908247151139
0.002058937028140928
0.0024877905252238364
0.0029532160618969253
0.003451451575088378
0.00397766094865542
0.004525971202619673
0.0050896010378106826
0.00566107691220711
0.006232521709014335
0.00679599140802612
0.007343828951295563
0.007869002974612757
0.008365402360694283
0.00882806506681984
0.009253329631030554
0.009638908214080146
0.009983889150871235
0.010288683737965485
0.01055493552254131
0.010785411505404126
0.010983893169111074
0.01115508290497346
0.011304537880236241
0.011438640337876534
0.011564609949114416
0.011690561401098558
0.011825607902203352
0.011980008387996106
0.012165348709771354
0.012394692023090136
0.012681956737382661
0.013029850210836259
0.013251282599214402
0.00011421044101016565
0.0001725938816287574
0.00030327220529253253
0.00048179173618174796
0.0007064029953084648
0.0009770526093244019
0.0012937271354438128
0.0016561200402877498
0.0020633620882404536
0.0025137493089775957
0.003004499046672532
0.0035315683674983557
0.004089565062153914
0.004671773994270428
0.005270309321125353
0.0058763880898780145
0.006480704182448726
0.007073867640085963
0.0076468650483038966
0.008191494608655097
0.008700734911519882
0.009169017885065146
0.009592391537461989
0.009968573431080706
0.010296909098393064
0.010578258542987174
0.010814838459071623
0.011010047936620738
0.011168302495683416
0.011294896609480437
0.011395909463695005
0.011478163678853437
0.01154924255876359
0.011617568339943466
0.011692542059860736
0.011784744736858572
0.011906194129230658
0.012070600604024118
0.012292925593711913
0.01257882937495223
0.012766743661296338
7.389600994057032e-05
0.00012851372753029186
0.00025474125709111755
0.00043214850670922876
0.0006590588717056746
0.0009354657889348412
0.0012616064317690294
0.0016375602037345663
0.002062855764576062
0.002536074749256489
0.003054493990383229
0.003613810146730633
0.004207989423612826
0.004829275992896171
0.005468376819720773
0.006114818266552595
0.006757445157599511
0.007385010737106396
0.007986791664489444
0.008553159209969664
0.009076047058683962
0.00954927503543535
0.009968712083081019
0.010332285460335553
0.010639862154951326
0.01089304018332438
0.011094891613853235
0.011249697009729252
0.011362704337450976
0.011439937286981259
0.011488069127169594
0.011514371231996175
0.011526739742779594
0.011533800553604737
0.0115450915579299
0.01157132166168578
0.01162471039663736
0.011719375693222733
0.011871195786079132
0.012088867421356727
0.012239473785410689
4.040782346881667e-05
8.96236361450624e-05
0.00020863648627343095
0.0003823111066377703
0.0006090739492779188
0.0008890307774447203
0.0012228732567265352
0.0016113262087455418
0.0020545852167718707
0.002551755490792308
0.0031003364928918354
0.0036958123299571473
0.0043314088073558524
0.004998070013975814
0.005684685829895848
0.0063785680400206615
0.007066133969850483
0.007733719964316675
0.008368423498785494
0.00895886867591617
0.009495806049501624
0.009972490861771809
0.01038482286807104
0.01073126848385516
0.011012612944348101
0.011231604517487061
0.011392554075707986
0.011500945741625935
0.011563101116809674
0.01158592529678195
0.011576749906343973
0.011543278460513942
0.011493632813144498
0.011436496212473663
0.011381347662089876
0.011338784723237549
0.011320933014075694
0.011341953358512798
0.011418253998103502
0.011561904206755036
0.01167162896862673
1.9055273069766692e-05
5.792582546937192e-05
0.00016629539415260853
0.0003328522956483791
0.0005560976744659181
0.0008364367546905881
0.0011752988057711737
0.0015743960487150845
0.002034959366135459
0.002556957052210366
0.003138362030221129
0.0037745451098031113
0.004457887545591022
0.005177697790015065
0.005920490503515344
0.006670634189836823
0.0074113100783884545
0.008125662407387274
0.008797980032465064
0.009414742532679902
0.009965395641049672
0.010442778375774734
0.010843192573647551
0.011166163730195366
0.01141398119791452
0.011591118998394554
0.011703632957387975
0.011758609750356254
0.011763719142968934
0.011726896973605063
0.011656167808615458
0.01155960367375971
0.011445409127621526
0.011322120684839345
0.011198910714059068
0.01108598722793135
0.01099508787452466
0.01094002165276002
0.010937133740579193
0.01100111912509143
0.01106655665308214
6.6545336537153045e-06
3.5277708463244777e-05
0.00012900305490511145
0.00028420321996033366
0.0004996291424843183
0.0007761954355114321
0.0011163908708480288
0.0015233604458822886
0.0019998709337059983
0.0025472432619184564
0.0031643131740759305
0.0038465324924972883
0.004585348828368525
0.005368007586191005
0.006177884054124006
0.006995376764938476
0.007799282598505495
0.008568465874248143
0.009283557452082498
0.009928412736937134
0.010491115865575417
0.010964427331728588
0.011345688781380255
0.01163629467132969
0.011840889195396965
0.0119664554719233
0.012021436066748237
0.012014983492040136
0.011956394196392927
0.011854744022621223
0.011718717599206159
0.011556611425288774
0.011376486311149622
0.011186448002465599
0.010995041104307752
0.010811749576947917
0.01064759684529719
0.010515857860330482
0.01043242886185927
0.010414125306312819
0.01043191163013996
0.00045264831267123715
0.0007242606580426305
0.0014797228068836859
0.0032061854422206965
0.003940800289816081
0.005596841530747691
0.006481988198980293
0.008244980732935073
0.009069921691377275
0.010491543294997062
0.011056855280003313
0.011514523953113464
0.011864011201701037
0.012109660244946755
0.012259413213704995
0.012323482522554944
0.01128095679630505
0.011029556527633325
0.010095877613859487
0.009938435209021738
0.009815851941058147
2.3207562109609284e-06
2.4124936248946688e-05
0.0001030748115927259
0.00024614639085847285
0.001064944134878246
0.001973347970371726
0.00254886538209276
0.004742860338849422
0.007373591440645524
0.009824996378517555
0.012313162792993946
0.012239893023946359
0.012114611008134183
0.011947392069428414
0.011747336932736639
0.011522662960087676
0.010776045722737253
0.010528856224116416
0.01029799408348621
0.009843589987193471
6.464462844485629e-06
2.034161539412665e-05
8.482436753480389e-05
0.00021510987070985928
0.00041028764536901757
0.0006725072490560324
0.0010067182002315195
0.0014193670950861136
0.0019168424322869057
0.002503805335930274
0.003181455877909645
0.003945913662541999
0.004786977065731963
0.005687577526433856
0.006624203357456206
0.007568410715308744
0.008489289704125255
0.00935648572596554
0.01014320083944827
0.010828596171053315
0.011399193006491394
0.011849145927337863
0.012179529676890255
0.01239695450641308
0.012511878328951093
0.012536937574763124
0.012485520502035243
0.01237069734292974
0.01220453236547176
0.011997744117247813
0.011759651693062732
0.011498340556359048
0.011220990861828416
0.010934328659288542
0.010645180060876976
0.010361124905294993
0.01009127005168517
0.009847140839378954
0.009643755031047469
0.009499637597214583
0.009443668567651217
1.4292478392037072e-05
2.0067778808828462e-05
7.134514004291729e-05
0.00018960177220078087
0.0003739876363179751
0.0006270838638090591
0.0009549333831463192
0.0013655156969860493
0.001867009022186192
0.0024658603714006098
0.0031647250881607467
0.003960461187997134
0.004842510304218351
0.005792085338386629
0.006782557602388801
0.007781243646580695
0.008752452673991993
0.009661274302476625
0.010477328362926563
0.011177693473039915
0.011748489393376794
0.012184986244662601
0.012490482107858893
0.01267440732471784
0.012750153372651542
0.012733031411799304
0.012638614506049188
0.01248156812831409
0.012274962145658179
0.01202999301405019
0.011756021227483097
0.011460833613757802
0.011151059690568406
0.01083269631488224
0.010511718812972512
0.010194781976814423
0.00989001030265089
0.009607973741067815
0.0093624566041717
0.009174339116022398