# vtk DataFile Version 2.0
time_10.vtk
ASCII
DATASET UNSTRUCTURED_GRID
POINTS   4141  float 
4.778925772502451e-05         2.7950973681354054e-18        0.0                           
0.24999999999999786           4.526135643322485e-05         0.0                           
0.5000438485446161            1.0563605024896266e-17        0.0                           
0.75                          4.067846198453123e-05         0.0                           
1.000038905665696             -4.489665689798444e-18        0.0                           
1.250000000000001             3.495511513077704e-05         0.0                           
1.5000327696158429            1.8750904852113318e-17        0.0                           
1.75                          2.796920218874118e-05         0.0                           
2.0000253548288973            -1.7395637776421243e-17       0.0                           
2.25                          1.9709144594090492e-05        0.0                           
2.500016686398351             -6.130799201866303e-18        0.0                           
2.75                          1.0274583649076765e-05        0.0                           
3.000006907944418             -1.4306801923832143e-16       0.0                           
3.25                          -7.534621715635025e-17        0.0                           
3.499996101458884             -2.822236387593171e-17        0.0                           
3.75                          -1.176446201202564e-05        0.0                           
3.999984218030811             -2.1614027150201637e-17       0.0                           
4.25                          -2.4002400783002345e-05       0.0                           
4.499971799720322             -2.7861909637855775e-17       0.0                           
4.75                          -3.675837984197557e-05        0.0                           
4.999958884491002             -6.198332420582714e-17        0.0                           
5.25                          -4.998599456465937e-05        0.0                           
5.499945497064744             1.6140442191340587e-17        0.0                           
5.75                          -6.371864724722564e-05        0.0                           
5.999931571399238             5.796714218237406e-17         0.0                           
6.249999999999999             -7.808973213790071e-05        0.0                           
6.499916940978574             8.806519643795113e-16         0.0                           
6.75                          4.7652172633062885e-05        0.0                           
7.000046436233494             3.523343601456468e-06         0.0                           
7.250003777272615             4.3716261750923134e-05        0.0                           
7.5000421924424625            4.330533744782522e-06         0.0                           
7.7500046268183596            3.8775233075448624e-05        0.0                           
8.000036868683233             5.249759944627201e-06         0.0                           
8.25000557253108              3.263679239845992e-05         0.0                           
8.500030306441674             6.230712309854038e-06         0.0                           
8.750006562196093             2.521475196858837e-05         0.0                           
9.000022456542794             7.220637882119266e-06         0.0                           
9.250007544154052             1.6532583097118692e-05        0.0                           
9.500013377140172             8.171880438911571e-06         0.0                           
9.750008473046673             6.710284151164356e-06         0.0                           
10.000003202875025            9.043439149662074e-06         0.0                           
9.361579233622576e-06         0.2999958291079077            0.0                           
0.2499919770735481            0.30000992272347227           0.0                           
0.5000101688283507            0.29998402348362985           0.0                           
0.7499799436823571            0.3000106433133649            0.0                           
1.00001087255084              0.2999716024079094            0.0                           
1.2499673479113416            0.30001131955283933           0.0                           
1.5000115399878229            0.2999586821926857            0.0                           
1.7499542722576014            0.30001198274184954           0.0                           
2.0000122086206122            0.29994529254495              0.0                           
2.249940716700176             0.30001267873080867           0.0                           
2.5000129267354496            0.29993136820686456           0.0                           
2.749926581865476             0.300013457726316             0.0                           
3.0000137440454537            0.29991674214118635           0.0                           
3.2499116686314884            0.300014365492244             0.0                           
3.500006561853331             0.3000460302118803            0.0                           
3.7500447266084844            0.30000754549595976           0.0                           
4.000008085683178             0.30004179858807445           0.0                           
4.250040155907388             0.3000092485074425            0.0                           
4.5000098641918855            0.3000364765116036            0.0                           
4.7500344290997845            0.30001114491325304           0.0                           
5.000011801942131             0.30002990258514334           0.0                           
5.250027421166296             0.3000131294599774            0.0                           
5.500013792348108             0.30002202618230367           0.0                           
5.750019117899735             0.3000150989794883            0.0                           
6.000015736653798             0.3000128998924281            0.0                           
6.250009599345486             0.3000169692924649            0.0                           
6.50001756323983              0.3000026302903245            0.0                           
6.749998981897739             0.3000187346223931            0.0                           
7.000019298285335             0.299991391466842             0.0                           
7.2499874593581595            0.300020335465477             0.0                           
7.500020820650881             0.2999793638679428            0.0                           
7.749975216949081             0.3000217503029493            0.0                           
8.000022199985423             0.2999667510441741            0.0                           
8.249962438614624             0.30002308299200126           0.0                           
8.500023522698537             0.2999536622384294            0.0                           
8.749949197543149             0.3000244161531763            0.0                           
9.00002487739493              0.29994010348335326           0.0                           
9.249935465467113             0.3000258479860889            0.0                           
9.500026364817243             0.29992597602375365           0.0                           
9.749921108310565             0.30002747899436355           0.0                           
10.000028082486567            0.29991107800535327           0.0                           
4.655418270598409e-05         0.6000098163864276            0.0                           
0.25001053016472663           0.6000440575964293            0.0                           
0.5000426572573057            0.6000121085077772            0.0                           
0.7500129649878888            0.6000395024298085            0.0                           
1.0000377314952549            0.6000147872700253            0.0                           
1.2500157416292401            0.6000337716499671            0.0                           
1.5000315746500237            0.6000177066324105            0.0                           
1.7500187051388725            0.6000267370272646            0.0                           
2.0000240967447858            0.6000207049959406            0.0                           
2.250021695594416             0.6000183833138633            0.0                           
2.500015317234089             0.6000236349003317            0.0                           
2.750024576496478             0.6000087888063991            0.0                           
3.000005336706724             0.6000263959153262            0.0                           
3.2500272744125915            0.5999980967211619            0.0                           
3.4999943277077157            0.6000289577159862            0.0                           
3.75002975172863              0.5999865227763564            0.0                           
3.9999824992009825            0.600031244003586             0.0                           
4.250031951475218             0.5999742458525474            0.0                           
4.499970028844953             0.6000333125709936            0.0                           
4.750033975076016             0.5999614362194552            0.0                           
4.99995706552044              0.6000352881727168            0.0                           
5.25003594935309              0.5999481777490154            0.0                           
5.499943657558212             0.6000373091624007            0.0                           
5.750038019416771             0.5999344463515357            0.0                           
5.99992974390271              0.6000395294355225            0.0                           
6.250040340179437             0.5999201068128316            0.0                           
[...]
POINT_DATA  4141
SCALARS Con float 1
LOOKUP_TABLE default
0.0003473094537761897
0.00037466107021849056
0.00042867270146423734
0.0004918054047203268
0.0005631537713660939
0.0006429262212275608
0.0007312830322620748
0.0008282426642021582
0.0009336674839495339
0.0010472608439135184
0.0011685704967571806
0.0012969976105965107
0.0014318104089403455
0.00157216068313978
0.0017171003020174753
0.0018655926103757234
0.002016516492569852
0.0021686570189481894
0.0023210067545202423
0.0024751852474178557
0.0026493499072494224
0.002824184370661599
0.002980803215139417
0.0031298111315352034
0.0032790017152833162
0.003427910001699987
0.0035767241268809123
0.0037258163564123327
0.003875834408409162
0.004027649966862655
0.004182331520550899
0.0043411209930896855
0.004505414013071011
0.004676741587588939
0.004856752015555091
0.005047192024149842
0.005249884227009821
0.005466669601976202
0.005698894456272003
0.005940356408028995
0.006079440531660833
0.00035273352802173326
0.00038072649194110993
0.0004358322559785641
0.0005001473333390471
0.0005727686606509975
0.0006538823346435901
0.0007436261680189935
0.0008419948145845333
0.000948826648263882
0.0010638019285962596
0.001186447546196091
0.0013161478380287021
0.0014521610361047876
0.001593640938372241
0.0017396640237321227
0.0018892666324267086
0.0020415043192943223
0.002195644995739284
0.002351506011187849
0.002513117680252301
0.0026769163770194292
0.0028381809431933473
0.0029948697295923326
0.003148986686718233
0.0033000442633013267
0.003449833663632218
0.0035989880459424387
0.00374819383138642
0.003898246830271429
0.00405010836947967
0.004204907202471594
0.00436393136769099
0.004528615079290993
0.004700523564128541
0.004881336543373241
0.0050728300537254585
0.0052768540329819705
0.005495275332307274
0.0057294557081671695
0.00597329261665104
0.006113907401804147
0.00034966622937497116
0.00037764147457961563
0.0004328540423105681
0.0004974362257590856
0.0005704647954776546
0.000652118373490929
0.0007425241219799222
0.0008416651383646441
0.0009493679934586695
0.0010653019736823412
0.0011889854516461773
0.0013197994440945732
0.001457009013772823
0.0015997941823091386
0.0017472950865859479
0.0018986812958591405
0.002053281470001327
0.0022107363628099544
0.002371665362072448
0.002531721522824021
0.0026846491966104075
0.002837464139231173
0.002995503804490202
0.0031516406480071066
0.003304859447913346
0.0034556585794580526
0.003605049875661936
0.0037539262171974465
0.003903238128701323
0.00405404353886348
0.004207537280495635
0.004365057403920346
0.004528081098576513
0.004698214853815919
0.004877181196312883
0.005066802666440939
0.0052689808600859585
0.005485639644773437
0.005718209395728302
0.005960610631066529
0.00610044021499003
0.0003443455317843643
0.00037235341571499413
0.000427767208092392
0.0004927906697779623
0.000566495613740582
0.0006490451113359324
0.0007405483551440985
0.0008409683455523922
0.0009501105035600833
0.0010676230058154516
0.0011930045472087203
0.001325619776232457
0.0014647231059095977
0.0016094920214789856
0.001759070762282826
0.0019126246951060644
0.0020693712287536623
0.0022285744956562245
0.0023882975659779947
0.0025459986533260754
0.0027014908904153434
0.0028556627647259364
0.0030097471361386365
0.0031641907472803286
0.0033168721807134284
0.003467376327163904
0.003616120188015501
0.0037638976794896794
0.00391166445939243
0.00406052196737537
0.004211716033048479
0.004366637744303826
0.004526819530041651
0.004693927234232882
0.004869748925413819
0.005056180709185078
0.0052552072021005165
0.005468846085495098
0.005698631651704999
0.0059386518333583455
0.006077320470416589
0.00033682506615005095
0.0003648808084149983
0.0004205921943498183
0.0004862506107815077
0.0005609181438881985
0.0006447363973509951
0.0007377882334254212
0.0008400070595467702
0.0009511662371080669
0.0010708800637257339
0.0011986119315417893
0.0013336896173779314
0.0014753275271982603
0.001622654575647459
0.0017747436615514972
0.0019306274925371112
0.0020892787690847204
0.0022493868586399715
0.0024094370508273687
0.002568171609782296
0.0027248927063890285
0.0028799246398212583
0.003033780447201364
0.0031863233133489293
0.003337275208943473
0.003486187399091013
0.003633201579129366
0.0037788973784250064
0.003924150878165957
0.00407005077293673
0.00421786731061021
0.004369036704443023
0.004525150819104675
0.004687947240690978
0.004859298274492679
0.005041197764925066
0.005235742894426975
0.0054450801133037255
0.005670894847456556
0.005907512760577508
0.006044510980455087
0.0003270396605803722
0.00035516910005626364
0.00041128527810935803
0.00047778421194281966
0.0005537133610761407
0.0006391852775214038
0.0007342478099847142
0.0008387947472998441
0.000952555758690645
0.0010750974124639021
0.001205830766264174
0.0013440251150582156
0.001488826918289279
0.0016392813826057902
0.0017943508216525048
0.0019529214312137696
0.0021137759869358295
0.0022756135402709336
0.0024371471769598467
0.0025972940870017096
0.002755435160911766
0.002911354637812427
0.003065047858996492
0.003216509910492404
0.003365586748358164
0.0035122398692599894
0.003656638590148429
0.0037992939575411996
0.003941021533561082
0.0040828910843171634
0.004226188441230455
0.004372392146222108
0.004523157606075146
0.004680304695565107
0.004845806280669901
0.005021775896289991
0.005210451091893528
0.005414141757400304
0.00563472829154321
0.005866844943812574
0.006001619587253035
0.00031492518180001116
0.000343159874040109
0.00039980110250660854
0.0004673604544169046
0.0005448648313512062
0.0006323897810735893
0.0007299392637026872
0.0008373575377920434
0.0009543192268577726
0.0010803298549087864
0.0012147323561864294
0.0013567190535793033
0.0015053481128707972
0.0016595623309221368
0.0018182073479615902
0.001980045862479501
0.0021437816869768907
0.002308106388357565
0.0024717897240813303
0.0026338047024967648
0.002793406858104271
0.0029501498807011383
0.003103800563516231
0.003254233132950485
0.003401412033122991
0.0035454119791242774
0.003686517468607261
0.003825267688877062
0.003962479060102985
0.004099228374636952
0.004236828869061884
0.004376809037197015
0.004520896339874352
0.00467100443642335
0.004829222298197526
0.004997803438262465
0.0051791516447117466
0.0053757727107981105
0.00558978281928369
0.005816197745278893
0.0059481375968136185
0.00030042707452266975
0.0003288042492472748
0.00038610266210008584
0.0004549562239375895
0.0005343640453933907
0.0006243563857441413
0.0007248847558606547
0.000835734742367282
0.0009565157210485484
0.0010866604625737908
0.001225430350827443
0.0013719260265276157
0.0015251030022882944
0.0016837914275136278
0.0018467192835921703
0.0020125415574567427
0.002179879680205569
0.0023473788536553636
0.0025137828253808166
0.002678009897234713
0.0028392104262664327
0.0029967787942507674
0.0031503290216624456
0.003299659906868692
0.0034447333352614065
0.0035856923821548925
0.0037228899884359495
0.0038569238860102196
0.00398865055670669
0.004119184727872326
0.004249887467932805
0.004382351767147314
0.00451838949635686
0.004660020856473445
0.004809465839275706
0.0049691364125336954
0.005141625900842962
0.005329665444140744
0.005535645861802103
0.0057550421070524885
0.005883466705890879
0.00028351588530270633
0.0003120760756848004
0.00037017201107579105
0.00044056396510929006
0.0005222149042713662
0.0006151014632940946
0.0007191149545999208
0.0008339745698760758
0.0009592160521600061
0.0010941897691176166
0.0012380643878065394
0.0013898365011256516
0.0015483465316049156
0.0017123010677619803
0.0018803022620179316
0.0020508854803242414
0.0022225672203194744
0.0023939034011815304
0.0025635538513030607
0.002730343857133824
0.002893309519341162
0.0030517202457733786
0.0032050794461813414
0.0033531146564571433
0.003495772235214753
0.0036332209389266417
0.003765866221070354
0.0038943638937361962
0.0040196293054040825
0.004142837449648385
0.00426541701135554
0.004389041472500468
0.0045156205471628165
0.004647293520201289
0.004786424736444713
0.004935600360370747
0.005097623065908659
0.005275475174418418
0.005471858343272293
0.005682787060173903
0.005806935568202893
0.00026420552658509833
0.00029298821802949273
0.00035202256161979734
0.0004241997798031661
0.0005084375094103449
0.0006046508042211167
0.0007126644802743351
0.0008321257489348644
0.0009624907231723112
0.0011030199781098067
0.0012527800198525395
0.0014106517029166888
0.001575346626313456
0.0017454322829460445
0.0019193665030985767
0.002095541492360298
0.0022723369198470755
0.0024481798332772827
0.0026216066686484346
0.0027913203146816535
0.002956235358402485
0.0031155071248909743
0.003268545422217072
0.0034150182893063633
0.0035548520526677437
0.0036882329297435405
0.0038156103673689843
0.003937700837842262
0.004055489114885942
0.004170226234973358
0.004283424617357617
0.004396852460148659
0.004512529240855341
0.0046327237240905254
0.004759954794587987
0.004896994441451378
0.005046869692864605
0.005212834842645645
0.005397934130814552
0.005598803546993937
0.005717825896715671
0.00024257508291174217
0.000271611537400731
0.0003317128701624833
0.00040591161731515777
0.000493070676187077
0.0005930365996526331
0.000705563756137517
0.0008302248324528912
0.0009663934205471741
0.0011132354507313526
0.0012697071747019887
0.0014345615488776903
0.001606364704516238
0.001783523610018573
0.001964325249086674
0.002146986658278752
0.0023297138796576403
0.002510766331934015
0.002688521581741908
0.002861534758906573
0.003028587340500897
0.0031887222467428472
0.00334126512783578
0.003485834364096487
0.003622343722283063
0.0037510009620055763
0.00387230468546881
0.003987039860158579
0.004096272419084935
0.004201343085694684
0.004303861523582496
0.004405702146525543
0.004509003062265032
0.004616169073364521
0.004729878961774964
0.004853096371553822
0.004989081117324249
0.005141373280731036
0.005313384904589704
0.005502455321964315
0.0056154064582469715
0.00021879394651496193
0.000248096416162513
0.0003093614098777273
0.00038578688970411333
0.00047617237373887656
0.0005802910350798023
0.0006978264237546504
0.0008282784702459256
0.0009709395022176568
0.0011248790766658979
0.0012889364359063014
0.0014617234001778419
0.0016416401312288084
0.0018269052043074193
0.0020156000726503664
0.0022057264892763923
0.002395273799563115
0.0025822915302280165
0.002764961648011822
0.002941664688307923
0.0031110347740507982
0.003272000461988825
0.0034238106265851716
0.003566046879822002
0.0036986252743503516
0.0038217906008820505
0.003936106199359216
0.004042441588039258
0.004141959851619967
0.004236106383670376
0.0043266005752780855
0.00441543203082044
0.004504862463855588
0.004597434071137067
0.004695984410435527
0.004803666961921208
0.004923974181718434
0.005060736601590403
0.005217750344822597
0.005393137491480528
0.005498976061073398
0.00019314967138425694
0.00022269604151331577
0.00028516144917176427
0.00036395850247981194
0.0004578170184664709
0.0005664353655404667
0.0006894312069007185
0.0008262395388481382
0.0009760783428724753
0.0011379232334898513
0.001310491368656929
0.001492238713937184
0.0016813740933080527
0.001875891922738666
0.002073623539902383
0.0022723048571072473
0.002469655980870287
0.0026634667963768826
0.0028516816102037677
0.003032476070487825
0.0032043207293719653
0.0033660276779713034
0.0035167790355291953
0.0036561384582062986
0.0037840484679150777
0.0039008174080858407
0.004007100076615952
0.004103875728165424
0.004192426889121384
0.004274321649924052
0.004351401853246416
0.004425778922024933
0.004499838635157557
0.004576255478500724
0.004658016475961761
0.004748453496191897
0.004851280780750211
0.00497061246483273
0.005110633509355074
0.005270322772380722
0.005367915678126796
0.00016607688984754623
0.000195789873675488
0.00025939448684659334
0.0003406078852610603
0.00043808831858232995
0.0005514633142246582
0.000680297077025333
0.0008239759092144181
0.0009816582054454656
0.0011522338422310838
0.0013342952009580409
0.0015261257625388503
0.0017257111851042084
0.0019307754445308373
0.0021388417681277474
0.0023473150397234073
0.0025535795564401702
0.0027551039517641255
0.002949544185391496
0.0031348358497236438
0.0033092687874405613
0.0034715395498652853
0.0036207803285815124
0.0037565658059908647
0.003878901666081235
0.003988199829690929
0.004085246032982982
0.00417116515304785
0.004247388994274685
0.004315630508014491
0.004377867319357118
0.004436336796885477
0.004493543892147113
0.004552282391058339
0.004615669392393038
0.004687191914014787
0.004770762030378252
0.0048707569139471996
0.0049917409796155846
0.005133615154024592
0.00522174970702019
0.00013818422129127338
0.00016790448020619246
0.00023243997215586663
0.00031596325197358045
0.0004170665430198518
0.0005353179924979377
0.0006702510186609798
0.0008212310552023187
0.00098738269099474
0.0011675265468262558
0.001360131031465724
0.0015632880144088107
0.0017747193090442272
0.001991817555204928
0.002211721041297668
0.002431417609127452
0.002647868951302337
0.0028581437120710706
0.003059546724301566
0.003249732526390963
0.003426793848690481
0.003589319554907241
0.003736420786718731
0.0038677279345355063
0.003983364043606317
0.0040839020814321505
0.004170313886068286
0.004243918339593533
0.004306335004582181
0.004359448223146726
0.0044053851273465295
0.004446509832000885
0.0044854349938242815
0.0045250512058120865
0.004568574061762246
0.0046196079590508175
0.0046822232922509475
0.004761023283532958
0.004860926935635657
0.004982809931310737
0.005060215093232223
0.00011027418811016287
0.0001397273049692662
0.0002047779581141695
0.0002902915606915508
0.00039480985150564126
0.000517862755651438
0.0006589887827673002
0.0008175765002248535
0.0009927586313987031
0.0011833149510823895
0.0013875958498185152
0.001603479199995139
0.0018283700509216252
0.0020592483098937488
0.0022927637643206785
0.002525371519491399
0.0027534951121977705
0.002973700480158654
0.0031828624981898993
0.003378307310793248
0.003557917850221617
0.003720195799863577
0.0038642795590080373
0.003989923270000234
0.004097446012686243
0.004187662142278376
0.004261804091090492
0.004321447631201475
0.004368447657773656
0.004404890285330919
0.0044330649357178205
0.0044554583052566375
0.004474770988918498
0.00449395669248155
0.0045162837891919005
0.004545418948775932
0.004585530961695596
0.00464139455583464
0.004718239647457891
0.004817958101874571
0.004883337748268279
8.334727140796316e-05
0.00011210643661009216
0.0001769814574452163
0.00026388323737328034
0.0003713320521121561
0.0004988484714513759
0.0006460297917690569
0.0008123573509815939
0.0009970369434994999
0.0011988526350086115
0.0014160503700091597
0.0016462677133909438
0.0018865233865435662
0.002133274445077428
0.0023825406819115397
0.00263008639847592
0.0028716406332731865
0.003103130716597799
0.003320901893184119
0.0035218986931804803
0.00370379063368659
0.0038650343874642367
0.004004874183518721
0.004123290222350448
0.0042209100203176525
0.004298899439983011
0.0043588493428798145
0.004402671200869643
0.004432511260023395
0.004450689573419283
0.004459666904452118
0.004462040517080542
0.004460568352030988
0.004458220612221621
0.00445825787127032
0.004464335511674209
0.00448063616231196
0.004512018346628803
0.0045639736478419205
0.004639431071942017
0.0046915054112469734
5.8583982316149956e-05
8.602869347393893e-05
0.00014969244790323058
0.00023703760837067345
0.0003465832289408906
0.0004778771933959476
0.0006306682866756055
0.0008046350881102937
0.0009991513108683222
0.0012130736656901485
0.0014445691237212595
0.0016910050122050495
0.0019489223565256316
0.0022141054204115732
0.002481748602387305
0.0027467065809018004
0.0030037994632626935
0.0032481340734548
0.003475399876011962
0.0036821030517763405
0.0038657146839249494
0.004024724653232593
0.00415860814136985
0.004267723232531122
0.004353164246313336
0.004416596325152005
0.004460093595905323
0.0044859977842462324
0.00449680813264702
0.0044951080783618
0.00448353005833847
0.004464757238967625
0.004441559678697972
0.004416862298466881
0.00439384252583932
0.004376056923716745
0.004367596722585353
0.004373276825677202
0.004398714152130481
0.004447987950578317
0.004485564309800361
3.726295202902461e-05
6.256033041397949e-05
0.00012361425435291753
0.0002100606388257103
0.00032041557952906536
0.0004543602852923695
0.0006119294152458294
0.0007931396151222605
0.0009976665629991537
0.001224541622058535
0.001471898941002323
0.0017368053047887252
0.0020152056009407303
0.0023020068302882467
0.0025913057055951976
0.0028767406642409166
0.003151924808935904
0.003410898572403744
0.0036485364815819297
0.0038608522927269457
0.004045169012771159
0.004200147082652302
0.004325688695047439
0.004422752401186487
0.004493118884496059
0.004539146281853017
0.00456354542528657
0.00456919523102269
0.004559008505939642
0.00453585077475801
0.004502509660044911
0.004461709766509102
0.004416167696352446
0.004368682180733311
0.0043222562944473415
0.004280249490973856
0.004246560237977763
0.004225823170870722
0.0042235799467337225
0.0042447999106739005
0.004266746089065141
2.0838947761692992e-05
4.285743848874546e-05
9.949696621081097e-05
0.0001832006377210856
0.0002925683543110441
0.00042755248010335013
0.0005886243016228575
0.0007763291535889567
0.000990833849585081
0.001231499892440522
0.0014965123517444027
0.0017826158773438666
0.0020850100282526866
0.002397446236746265
0.002712541214847035
0.003022282061669836
0.003318655016079445
0.0035942987276995674
0.003843074633276288
0.0040604672352675016
0.00424376768499529
0.004392041745850544
0.004505922652112817
0.004587291995365532
0.0046389152974884934
0.004664089255086625
0.004666339788835113
0.0046491921460680066
0.004616018973006992
0.004569962207443887
0.004513919199753653
0.004450582117364305
0.004382520892559699
0.004312302580314605
0.004242643339871667
0.0041765922892243665
0.0041177466228488535
0.004070504361937265
0.004040193300018084
0.004032521292086884
0.004037750084602276
0.0002697962381790351
0.00040523889283992096
0.0007639070995316152
0.0015301614226001037
0.0018403393392955707
0.002511169330151823
0.0028547239394828656
0.003508526142087056
0.003799858482933538
0.004276228494652591
0.004454038230822681
0.004590690785766268
0.00468797228999139
0.004749055918990957
0.004777973067019928
0.0047791396624242075
0.004339203113381544
0.0042483635816573054
0.003916969248011824
0.0038609544151980866
0.0038157006397685814
1.0794657214484828e-05
2.987867974147531e-05
8.18045363902688e-05
0.00016209273693955218
0.0005695232315092159
0.000989208607100495
0.0012452155119857479
0.0021699376014546914
0.0031905024076157337
0.004057371069185765
0.004756981872353152
0.004715676826506862
0.004659003798676448
0.004590289844994074
0.004512430418831718
0.004427966341792944
0.004157770603277812
0.004070061286414793
0.003988440139322369
0.0038264514786007925
6.77029234019878e-06
2.23835528369521e-05
6.887077281822034e-05
0.00014460083684765564
0.00024860862767289715
0.00038152252245344484
0.0005449068916343219
0.0007406111129300527
0.0009700539095133851
0.0012335181953811425
0.0015294967604779388
0.0018541845167500686
0.002201229406008649
0.0025618461850259286
0.002925345018919791
0.0032800366429099
0.0036143733639884654
0.003918109575674095
0.004183253593775203
0.004404640974514775
0.004580066327117588
0.0047100191030291175
0.004797144991876238
0.004845580055166881
0.0048602890095774095
0.004846498386922726
0.004809270974103082
0.004753230418135185
0.004682420980840878
0.0046002761268073315
0.0045096675895987355
0.004413011109964551
0.004312411132407392
0.0042098346322175535
0.004107310886081309
0.004007159292482838
0.0039122551789098695
0.003826333952429818
0.003754367682614974
0.0037025976921146305
0.003681930744796779
5.208245152378968e-06
1.754072515162516e-05
5.8836138088751355e-05
0.00013009432424483807
0.00023044566973745922
0.0003607940116164734
0.0005232288219446186
0.0007202471819031494
0.0009539384805373269
0.0012251452965471624
0.0015326635341294526
0.0018725905206908484
0.002237970986666377
0.0026188875615414872
0.003003080550092843
0.003377061244949302
0.003727538413127062
0.0040428681145216585
0.004314218518689466
0.004536227369054063
0.0047070820321535485
0.004828103290964492
0.004903010034262965
0.004937064654859754