# vtk DataFile Version 2.0
time_10.vtk
ASCII
DATASET UNSTRUCTURED_GRID
POINTS   4141  float 
0.00011328374175935033        1.0439969791463506e-16        0.0                           
0.2499999999999999            0.00010764478296555556        0.0                           
0.5001044405560375            3.5596570625822846e-17        0.0                           
0.75                          9.71551632385682e-05          0.0                           
1.0000930383490487            1.72391171580177e-17          0.0                           
1.25                          8.378896781415453e-05         0.0                           
1.5000786386710963            5.670001057644758e-16         0.0                           
1.75                          6.726633515220765e-05         0.0                           
2.0000610454850403            9.885440098835332e-17         0.0                           
2.25                          4.756010595698339e-05         0.0                           
2.50004031484094              3.9696174783121006e-18        0.0                           
2.75                          2.4894059883519522e-05        0.0                           
3.0000167682046732            -3.351225863547776e-17        0.0                           
3.25                          -2.9644903741853055e-17       0.0                           
3.499990593907985             -6.328651176458773e-17        0.0                           
3.75                          -2.850772266669574e-05        0.0                           
3.999961693105494             6.940951518634543e-17         0.0                           
4.25                          -5.8436534685597644e-05       0.0                           
4.499931243266758             1.676049575866959e-16         0.0                           
4.75                          -8.988250611909224e-05        0.0                           
4.9998993170874275            1.132591811072491e-16         0.0                           
5.25                          -0.00012276367404115228       0.0                           
5.499865946038534             -7.686675912229999e-17        0.0                           
5.75                          -0.0001571799073613953        0.0                           
5.999830958083769             5.489980695486313e-17         0.0                           
6.25                          -0.00019344859303161905       0.0                           
6.4997939662530815            -4.586720381499978e-19        0.0                           
6.75                          0.0001129209992024501         0.0                           
7.000110226098536             7.858248367746027e-06         0.0                           
7.250008521333878             0.00010408888592548687        0.0                           
7.500100601065669             9.951818880643658e-06         0.0                           
7.7500107121672155            9.269069664044438e-05         0.0                           
8.000088237947928             1.2302459423979695e-05        0.0                           
8.250013123479407             7.82848503870902e-05          0.0                           
8.500072773036223             1.4794535336524458e-05        0.0                           
8.750015635680489             6.067383145378239e-05         0.0                           
9.000054093507437             1.7308312642593086e-05        0.0                           
9.250018132162642             3.991018812320968e-05         0.0                           
9.500032330368915             1.973765621380093e-05         0.0                           
9.750020512800125             1.626365346722234e-05         0.0                           
10.000007786387021            2.1995780735100473e-05        0.0                           
2.2808894394280743e-05        0.29998992246068845           0.0                           
0.24998056712553843           0.30002427612508775           0.0                           
0.5000249351715574            0.2999611858693684            0.0                           
0.7499512071441363            0.3000262180350799            0.0                           
1.00002684445293              0.29993072569506235           0.0                           
1.2499202372507772            0.3000280782263206            0.0                           
1.5000286917117451            0.2998987854195794            0.0                           
1.7498878230668578            0.30002992981996807           0.0                           
2.0000305622288064            0.29986540797685174           0.0                           
2.2498539398441886            0.3000318736912821            0.0                           
2.500032560559741             0.2998304230639441            0.0                           
2.7498183427696627            0.3000340147569963            0.0                           
3.0000347885354777            0.29979344177846085           0.0                           
3.249780576673251             0.30003644390475076           0.0                           
3.500014443305173             0.3001091499903907            0.0                           
3.750106225215738             0.3000170220528598            0.0                           
4.000018422649408             0.30009955280829603           0.0                           
4.250095763127485             0.3000214132276304            0.0                           
4.500022987139013             0.3000871924532818            0.0                           
4.750082386910501             0.3000262480310771            0.0                           
5.000027916685106             0.30007169814331963           0.0                           
5.250065809607693             0.30003128525082134           0.0                           
5.500032968042042             0.300052953674622             0.0                           
5.750045998251402             0.30003629185395925           0.0                           
6.00003791953895              0.300031078091257             0.0                           
6.250023134155438             0.30004108205086205           0.0                           
6.500042615416328             0.30000631417800655           0.0                           
6.749997481783694             0.30004564922468485           0.0                           
7.000047120486987             0.2999790510027029            0.0                           
7.24996947386976              0.30004987029707253           0.0                           
7.500051175339231             0.29994968912009523           0.0                           
7.749939517153565             0.3000537053007245            0.0                           
8.000054942621874             0.2999186698320997            0.0                           
8.249908007683393             0.30005739422178457           0.0                           
8.500058622932466             0.2998862188027562            0.0                           
8.749875088547743             0.3000611251604676            0.0                           
9.000062414856593             0.2998523256962397            0.0                           
9.249840672040804             0.30006511150030946           0.0                           
9.500066533686018             0.2998167465549117            0.0                           
9.749804437437113             0.3000695601295527            0.0                           
10.000071176169536            0.299779016371823             0.0                           
0.00011001602324445765        0.6000216039752055            0.0                           
0.2500234830004291            0.6001044493653219            0.0                           
0.5001012737352077            0.6000275880441213            0.0                           
0.7500297953655828            0.6000940223735074            0.0                           
1.000089908741565             0.6000344610449129            0.0                           
1.250036892999125             0.6000806344033318            0.0                           
1.5000754551161957            0.6000418859423063            0.0                           
1.750044419264315             0.600063990561906             0.0                           
2.000057706042266             0.6000494936679157            0.0                           
2.2500520106789774            0.6000440554037262            0.0                           
2.5000367053355688            0.6000569529964372            0.0                           
2.750059362937168             0.6000210066831903            0.0                           
3.0000126814001393            0.6000640450727658            0.0                           
3.2500663195304433            0.599995168444032             0.0                           
3.4999860229706874            0.6000707123929224            0.0                           
3.750072808294514             0.5999670239200652            0.0                           
3.999957197348595             0.6000767998739565            0.0                           
4.250078716893727             0.5999369689500014            0.0                           
4.49992659473561              0.6000824481839969            0.0                           
4.750084283114565             0.5999053726930732            0.0                           
4.999894534428841             0.60008794669048              0.0                           
5.250089798997653             0.5998724046182626            0.0                           
5.499861104293177             0.6000936062499822            0.0                           
5.750095585985515             0.599837987567974             0.0                           
5.999826143961525             0.6000997573781177            0.0                           
6.250101971057645             0.5998017969680175            0.0                           
[...]
POINT_DATA  4141
SCALARS Con float 1
LOOKUP_TABLE default
0.0016825673555627824
0.0018416145409271688
0.002157847052976802
0.002528446288417883
0.0029482914956736124
0.003418766902620853
0.0039409605707167155
0.004515125545171025
0.005140607146687732
0.005815837786033215
0.006538368919590843
0.007304934965248123
0.008111542845770273
0.0089535769479566
0.009825904327441898
0.010722952865728375
0.011638771654587233
0.012566967788648985
0.01350294609331767
0.014453281950851587
0.015508519132946508
0.016578949217694226
0.017569352056285455
0.01851818656192463
0.0194745415219764
0.020436232110046554
0.021404796021139722
0.02238248663340084
0.023372971378629523
0.024381052519103975
0.025412513636917707
0.026473974869816123
0.02757276320066469
0.028716786549272837
0.029914406977873124
0.03117430984354297
0.032505360040186386
0.03391630123081671
0.035413072001796775
0.036957890489793185
0.03784378035543087
0.0017166281533105407
0.001879682618553285
0.0022025769603729456
0.002580369829140367
0.003007959296492731
0.0034866010938105654
0.0040172529286542445
0.004600029281187318
0.005234135464227618
0.0059178685398570356
0.0066486565419133035
0.007423131885148035
0.008237235437859244
0.009086347945483053
0.009965448780702655
0.010869328072203071
0.011792900703717118
0.012732321003919184
0.013686141494400538
0.014678772295189057
0.015689269667301185
0.016688073230785902
0.017668319284567396
0.018646354966538527
0.019613786754129746
0.020581311388774687
0.021552660136854935
0.022531855772951557
0.0235234072170428
0.02453263814436799
0.025565689017917458
0.0266294579283353
0.027731507661199264
0.0288799574380892
0.03008336445181388
0.03135059676179216
0.032690689911016826
0.03411254675333033
0.03562216989533281
0.03718223141442803
0.038077825420651606
0.0017011161870819278
0.0018639416813442241
0.00218725392020853
0.002566367200937524
0.0029960845874875213
0.0034776322747408885
0.004011916599368147
0.0045989926676556
0.005238002352511833
0.0059271813202799156
0.006663907183024663
0.007444787905450675
0.008265792874162457
0.009122434719449136
0.010010027130131048
0.010924069469354567
0.011860968654153084
0.012818767445029262
0.013801334737237624
0.014782596646662977
0.01573420408015576
0.01669319151287779
0.0176827249737054
0.018668573294620273
0.01964708165190518
0.02061968474034566
0.021591952367190845
0.022568870082577002
0.023555757642611558
0.02455846701856962
0.025583520131206964
0.026638121847181964
0.02773011483570056
0.028867899606217384
0.030060333410153905
0.031316613566165045
0.032646138086214894
0.03405819108079253
0.03555914529510713
0.03711141191617469
0.038002371511185316
0.0016739449096827574
0.0018367675599484112
0.002160874282812767
0.0025421271325168095
0.0029753322123505003
0.003461647459807836
0.0040018918866186436
0.004596016992098709
0.005243051392914311
0.005941114286811312
0.006687471630569436
0.007478635153069302
0.008310506999845828
0.009178575150563398
0.010078162945126356
0.011004734202384106
0.011954045014848926
0.012922161756075303
0.013898150665119563
0.014869521276000313
0.015834820361393387
0.016799031179190346
0.01776923783152284
0.018746957780619234
0.019721821218534448
0.020692122672218365
0.02166001593038961
0.022629893194985918
0.02360705409203852
0.024597581706922132
0.02560829720810752
0.026646738105028125
0.027721110682342096
0.02884021812412621
0.03001336765656017
0.03125025865696833
0.03256084085386006
0.033954983714482155
0.035439639411504346
0.036978036081376724
0.03786227008823973
0.0016355282978929204
0.001798342699111348
0.0021236422598110392
0.0025079819795866677
0.0029461561837259335
0.0034392280929546348
0.0039878878649676425
0.004591934362168842
0.0052502250156297335
0.005960693544702721
0.006720408864887226
0.007525673751621088
0.008372161151634293
0.009255079595772688
0.010169343998360525
0.011109663498532266
0.01207043517572386
0.013044468585748275
0.014023776733108501
0.015001543879273624
0.01597435904007514
0.01694392272098007
0.017912826781276384
0.018880671788429768
0.019846088152277414
0.020806993154957848
0.021764358773019677
0.02272140935651582
0.023683004377891607
0.024655161430307538
0.02564486554121518
0.026659957927508617
0.027709051808686536
0.02880144666580307
0.029947031344446283
0.031156170081010636
0.03243955593320553
0.033807875877314465
0.035268997647949704
0.0367876669893942
0.03766261589362838
0.0015855147238101324
0.0017483771030753152
0.002075318824291173
0.0024637527025625897
0.0029084453087828703
0.003410329124894469
0.003969921947848516
0.004586818046236076
0.005259641936430367
0.005986067058083198
0.006762872109882838
0.007586031488234876
0.008450833178191189
0.009352008791058318
0.010283841670950825
0.011240208034146562
0.012214426512886574
0.013199428881418108
0.014188242485235212
0.015175136605305442
0.016156765309479928
0.01713192936331711
0.018100582648791736
0.019062725205002354
0.02001774042929763
0.020965593497280603
0.021907363713060974
0.022845947922236744
0.02378588367290837
0.02473310438382755
0.025694722561948852
0.026678883116622348
0.027694649698741674
0.028751903018092148
0.029861236774953726
0.03103384143004545
0.03228135965775279
0.03361556232634237
0.03504561045255741
0.03653814687023566
0.0374005172110549
0.0015235647531935909
0.0016865563313483607
0.0020156547001982223
0.0024092626785119117
0.0028620987427076037
0.00337492674806408
0.003948047519599798
0.00458079939069103
0.005271513791542385
0.006017532034341459
0.006815256103169195
0.007660229382923231
0.008547240530690768
0.009470437434091514
0.010423434985111484
0.011399399108098644
0.012391194957795183
0.01339164802722306
0.014394062969845472
0.015392840827538487
0.01638389924280117
0.01736471742161481
0.018333933480700206
0.019290848338548012
0.02023531702416114
0.02116785135433089
0.022090097093119543
0.023005085675370844
0.023917370649104142
0.024832950437839257
0.025759141686580025
0.02670445090103898
0.027678461123188475
0.028691727294519475
0.029755671930827423
0.03088247255316885
0.032084925389932205
0.03337613904216906
0.03476683422020645
0.03622591738348115
0.03707200288362779
0.0014493983082332225
0.0016126241459679187
0.0019444482053111278
0.0023443785086066705
0.002807057142709217
0.003333039455381803
0.0039223663776304235
0.004574073271000361
0.0052861448451532985
0.00605552754515158
0.006878173579904177
0.007749114215269842
0.00866255869485236
0.009612013452986705
0.010590417894730178
0.01159031323577772
0.012604066445737158
0.01362419289098531
0.014643752574115895
0.01565674962578361
0.016658414083917546
0.0176452735495051
0.018615050516429598
0.019566512174735158
0.02049937892724893
0.02141440920589147
0.022313546060437645
0.023200100336251188
0.024078839259644564
0.024955997258144614
0.025839216647613884
0.026737461797816296
0.02766092664791002
0.028620942421738134
0.029629883723969883
0.03070106758926171
0.0318486309018937
0.03308723818304037
0.03442942582546254
0.035846836213058855
0.036672417471097944
0.00136288330402908
0.001526457191012418
0.001861606984915077
0.0022690535434854355
0.0027433277577517384
0.0032847356670727868
0.003893019697187242
0.004566873210902651
0.005303891028458668
0.006100574138861277
0.006952365498747705
0.007853717661051196
0.008798192996641956
0.009778596813509134
0.01078714704464317
0.011815687203284722
0.01285595362831965
0.013899892698792514
0.014940005359476902
0.015969666265323524
0.01698336197948951
0.017976817865268068
0.018947027288816823
0.019892231490314254
0.020811915812659766
0.02170684335477894
0.02257913653813919
0.02343236000388953
0.024271582820322695
0.025103393499878418
0.025935875458641174
0.026778554471541663
0.02764233324517536
0.02853942088360459
0.029483258817467495
0.030488439912782123
0.03157060615751858
0.03274617828747663
0.034029768406874
0.035396265565389017
0.036196521907159655
0.001264139466869536
0.001428157546945531
0.0017672177131950744
0.0021833738200490297
0.00267100566089651
0.00323013052608208
0.0038601615088918284
0.00455942301642613
0.005325090798601482
0.006153183522401241
0.0070385866375915485
0.007975113152467721
0.00895560600335911
0.009972085647974905
0.0110159455005949
0.012078196747054272
0.013149758489409961
0.014221780480948453
0.015285972110895543
0.016334904115149766
0.01736225143627206
0.018362961552658565
0.019333353493626186
0.020271171228259055
0.021175617207791486
0.022047388481697863
0.02288871752370026
0.023703413470674947
0.02449688930497955
0.025276168440535755
0.02604986869200726
0.026828170049773958
0.027622773157711524
0.028446854277591777
0.02931501812043354
0.030243245594224345
0.031248821996482778
0.03235010185216702
0.033564018388989966
0.034869247269602235
0.035638681499500884
0.0011536615482123443
0.0013181598466018342
0.0016616235958449316
0.0020876038036514465
0.0025902872822059584
0.003169367884815444
0.0038239112003493015
0.0045518629840899435
0.005349969009425605
0.006213744492426913
0.007137478798767999
0.008114284453578485
0.009136198694722644
0.010194342733414179
0.01127913991784041
0.012380588814407479
0.013488580576935217
0.014593242001175788
0.015685279330949785
0.01675629542281305
0.017799057598566544
0.018807703615970443
0.01977788612427153
0.02070686570184481
0.02159356797073518
0.02243861794057067
0.023244361084707784
0.02401487369547985
0.024755963313864503
0.025475158683226886
0.026181691521565933
0.026886473990172896
0.027602076663675465
0.02834271011537229
0.02912421046402995
0.029964025171948464
0.030881184237055857
0.031896116851862506
0.03302829214122977
0.034260727161542506
0.03499311293554246
0.0010324601213529147
0.0011973513967732045
0.0015455063030742524
0.001982227938568328
0.002501471383788987
0.0031025823021178216
0.003784280034161754
0.004544146413748347
0.00537851073449111
0.006282383172747138
0.007249428684860183
0.008271995625386141
0.009341211206191533
0.010447150490378485
0.011579078703592269
0.012725758895848531
0.013875808969239163
0.015018085265514394
0.016142065718161805
0.017238205821271647
0.0182982454928085
0.019315453460556322
0.020284805403411026
0.021203100725794465
0.022069027949147717
0.02288319110125125
0.02364810862351552
0.02436819457436114
0.02504973009474579
0.02570083179106955
0.026331423185923408
0.02695321507972737
0.02757969927408977
0.028226158072720435
0.02890968873562774
0.02964923800778887
0.030465630979075908
0.03138145906118697
0.032418892400072064
0.03356584276792907
0.034254204161907685
0.0009022148050095932
0.0010671999333091925
0.0014199666414017962
0.0018679819038405893
0.0024049412693254607
0.0030298347574178285
0.0037410654966899904
0.0045359003978029215
0.005410299026608672
0.00635879090359647
0.00737440136226246
0.008448647106061384
0.009571618682314882
0.010732158842279921
0.011918135575694882
0.013116797833384809
0.01431519221742238
0.015500611642367695
0.016661043600007322
0.017785586997911603
0.018864812098786207
0.019891046954405862
0.02085858349155441
0.021763805651262014
0.022605248948689777
0.023383605252502684
0.024101688563786645
0.024764377416896275
0.02537854866678596
0.02595301539612589
0.026498480020259854
0.02702751119431682
0.02755455076185906
0.02809595341310179
0.02867005782825337
0.029297282940793194
0.030000232108306695
0.030803674685399227
0.03173257659582322
0.032780274075441554
0.03341690923351954
0.000765429556663462
0.000929878884107428
0.001286594780965946
0.0017458654721306934
0.0023011211241240575
0.002951015930193678
0.0036937076734463677
0.004526244871553558
0.005444310058275914
0.00644201239602948
0.0075117407662598406
0.0086441082458089
0.009828012823880192
0.011050826746523617
0.012298712342015109
0.01355704735751102
0.01481093002963605
0.01604572520012898
0.017247609242670468
0.01840407376209228
0.01950435545979826
0.02053977038375102
0.021503943122277706
0.0223929331612195
0.023205270256047236
0.023941917301859007
0.024606182883719192
0.025203606562084212
0.025741838864461974
0.026230535415875264
0.02668128123456833
0.027107557649648832
0.027524760207474984
0.027950271756838164
0.028403590067535844
0.02890650275786513
0.029483288680843343
0.03016082042426656
0.030966862435698586
0.03190065490501027
0.0324772184249455
0.0006255705363412695
0.0007883730461542649
0.0011475164914994066
0.0016171271063916185
0.002190400622063756
0.0028657135859884255
0.0036411049882242967
0.004513566832637537
0.00547866170011578
0.006530189920186865
0.007659933619312104
0.008857524870409493
0.010110473232615264
0.011404369973921658
0.012723265705157609
0.014050197467987444
0.01536782352177013
0.0166591119094354
0.017908024421974585
0.0191001412307229
0.020223182043096505
0.021267394977246255
0.022225801543892327
0.023094302411662486
0.023871661943746226
0.02455939885808612
0.02516161511380978
0.025684796315306017
0.026137614540978724
0.026530760582185616
0.026876826944739755
0.02719025778351261
0.027487376118225368
0.02778649430489037
0.028108108828715433
0.02847517413584512
0.028913434011293183
0.029451677188770887
0.030120363292131427
0.030925036020221664
0.03143269461003741
0.000487156654867546
0.0006465383990353317
0.0010053967192841112
0.00148321216849671
0.002073027104571424
0.0027730480202634994
0.0035813934610245024
0.004495251853881381
0.0055103169040986825
0.006620265221548534
0.007816340185142162
0.009087109107315437
0.010418442105118216
0.01179373748055402
0.013194389371937686
0.014600463965170295
0.015991524216777176
0.01734752561247933
0.018649699046604046
0.019881342934358368
0.02102846313052416
0.02208022244854665
0.023029187242727234
0.023871382140039938
0.024606182924166185
0.025236089727489232
0.025766428305021447
0.026205026777797166
0.02656191053910179
0.02684905064510353
0.02708019247773626
0.02727078311521138
0.027438008747513898
0.027600947942131658
0.02778084321301145
0.028001491660739862
0.02828974278913874
0.028675984503923627
0.029193140376765177
0.029853380659471847
0.030283063719016335
0.00035575187363556674
0.0005090768140743661
0.0008633821918877207
0.0013456713017481747
0.001948980487822906
0.0026714924678099316
0.0035116994331792105
0.004467383007284158
0.005534753495735355
0.006707651718072772
0.007976905863467975
0.009329928956047479
0.010750626126470013
0.012219648877735684
0.013714993340859726
0.015212895072368077
0.016688933134932554
0.01811922861015702
0.01948161332690807
0.02075665464298127
0.021928448932271725
0.022985133463134775
0.023919106204767566
0.024726978528444014
0.025409312361043053
0.02597020865326817
0.026416818716591833
0.026758845913853618
0.027008094949499097
0.027178113212314323
0.027283954654094656
0.02734208482359872
0.02737043564711904
0.02738861233421604
0.02741825248566502
0.02748353921323214
0.027611881903399308
0.027834700042213344
0.028187089392648055
0.028688060039582974
0.02903078722290617
0.00023781919331868488
0.0003813811198900617
0.0007249537137787971
0.0012060733260934955
0.0018178710376730931
0.0025586831046840943
0.0034278807047745624
0.004424434361559333
0.0055456315510550745
0.006785907589800685
0.008135882520617747
0.009581727382113115
0.01110496072341833
0.012682737863094326
0.01428863631799682
0.01589387210800802
0.017468817965127018
0.01898464913110235
0.02041492714024313
0.02173694991216316
0.022932741276303664
0.023989615367488913
0.024900314303992737
0.02566277236444317
0.02627959632695175
0.02675736962190516
0.027105887653480557
0.02733741925957693
0.027466068790734547
0.027507290753126013
0.02747758764606715
0.027394404367028693
0.02727622017583892
0.027142832141108627
0.027015821452037275
0.02691919905684634
0.026880231055821997
0.026930490615454033
0.02710631658133771
0.02743435190690634
0.027681753755667966
0.00014315800744998453
0.00026917852298308985
0.0005938573472368397
0.0010659955690298932
0.00167877079418729
0.0024312108889048517
0.0033243101870282666
0.004359032600057003
0.0055345332096087985
0.00684647541995716
0.00828561592612294
0.009836823142895917
0.011478692711754803
0.013183868475471759
0.014920092310722659
0.0166518958295852
0.0183427404628629
0.019957334093729028
0.021463826662078724
0.022835618047016122
0.02405259235874851
0.02510169770644716
0.025976896507386795
0.02667859380799376
0.02721270196970572
0.027589514589446872
0.027822550899084062
0.027927500487197807
0.027921360025350526
0.027821815404865696
0.02764689111344971
0.02741486578529073
0.027144439767102294
0.02685513469832215
0.02656790626070649
0.026305952267646277
0.026095713279288314
0.025967966147493308
0.025958849680476733
0.0261008500477717
0.02624501297602675
7.380841720846945e-05
0.00017848855493536876
0.00047401424959634406
0.000926708554007089
0.0015301844715062333
0.0022849021083558986
0.0031943180205160886
0.004262481665066086
0.005491525403193903
0.006879289262202038
0.00841724236489141
0.010088967388205116
0.01186946540302076
0.013725482647715807
0.015616929899115686
0.01749928665559388
0.019326693358722953
0.02105529610654198
0.022646358072995244
0.024068713575593818
0.025300286791565357
0.026328587415596835
0.027150271211068996
0.027769982294655503
0.028198753919061147
0.028452247086065592
0.028549061494170427
0.028509289032575755
0.028353409173096717
0.02810156593118481
0.02777322134921812
0.027387154760967463
0.026961766781577655
0.02651564935053335
0.02606839273556775
0.02564161424439766
0.025260188707713894
0.024953710885812545
0.024757159146918263
0.024707576357839933
0.02474103841866229
0.0014100625806741942
0.0021641378834735504
0.004191310056215624
0.008601390273545331
0.010410682171317154
0.014375838255152174
0.016440130090681366
0.020456158932801283
0.022296794534066897
0.025416509402135603
0.02663807069320213
0.02761685405682531
0.028354632495159408
0.028862636296047454
0.02915903336896514
0.029266373718331327
0.026715208194212667
0.026125522714846253
0.023950901013540138
0.02358301986183654
0.023283537834332315
3.608010335211138e-05
0.00012395674571242824
0.00038917649275429465
0.000819224001956142
0.0030884829169944192
0.005478698457272413
0.0069512972032498505
0.012349226445378768
0.018486009272006155
0.0239619286897583
0.02920930924297465
0.029012779921849842
0.028700747491116906
0.028295473173535358
0.02781728447170796
0.02728475317165551
0.025533139554657254
0.024957326589943932
0.024420688867281437
0.023355888912667343
2.4842984504508994e-05
9.259983302747751e-05
0.0003247563818107485
0.000726892450488625
0.0012946314599483577
0.002031999670247425
0.002948595287639364
0.004056025003978677
0.0053639112394558
0.006875961692804737
0.008586314637335736
0.010476653857360662
0.012514644560436675
0.014654191186005494
0.016837769731336414
0.019000685850757006
0.021076662384449493
0.02300381803029299
0.02472999869261251
0.026216602463322785
0.02744042962110406
0.028393540157492323
0.02908147634151148
0.029520421420212873
0.02973391131863663
0.02974963035979466
0.029596666788466897
0.02930343149568041
0.02889629613013399
0.028398903065527014
0.027832043659197763
0.027213986013876555
0.02656114533097348
0.02588901836640929
0.025213339731525914
0.024551448268150516
0.023923902823358996
0.02335631980896475
0.0228816012716557
0.022539798772719208
0.022401843563711204
2.6743224578527586e-05
7.505709253197656e-05
0.00027607248193307123
0.0006511946778109036
0.001196418670014002
0.0019171768409071315
0.002825993569904929
0.003938192496858809
0.005267346742394487
0.0068206059972438894
0.008594244184201644
0.010569980619564455
0.01271281299245579
0.014971066074830053
0.017279069812903797
0.019562348503929128
0.02174457498796649
0.023755045723013197
0.02553527468652206
0.027043559185828497
0.028256930268314908
0.029170538145479426
0.029795026496597647
0.030152706894705318
0.030273358076029464
0.030190315865509267
0.029937281946359823
0.029546041915265178
0.02904509565431683
0.02845908578758974
0.027808858639448826
0.027111991289748373
0.026383648032598073
0.025637673324849047
0.02488787222107688
0.024149480550569577
0.023440808085823214
0.022785268319821
0.02221282198921555
0.02176912266597968
0.02157578266630368
3.8193690407875874e-05
6.673826293297407e-05
0.00023498398615355074
0.0005805395485582532
0.0011002019068809415
0.001800976796194896
0.002698664827396167
0.003812903966436626
0.005161930810738111
0.0067570989889919626
0.008597461773858483
0.010665099285478433
0.012922147718776393