# vtk DataFile Version 2.0
time_10.vtk
ASCII
DATASET UNSTRUCTURED_GRID
POINTS   4141  float 
5.929681334253678e-05         -1.8923071851982382e-17       0.0                           
0.24999999999999994           5.618790620860259e-05         0.0                           
0.5000544463516506            -1.5405757429603517e-17       0.0                           
0.75                          5.0531125370047915e-05        0.0                           
1.0000483382179775            -7.284353604767497e-18        0.0                           
1.25                          4.34453347897252e-05          0.0                           
1.5000407357658923            1.2094160549808454e-16        0.0                           
1.75                          3.4779267703743843e-05        0.0                           
2.0000315330086837            -1.685082277170648e-17        0.0                           
2.25                          2.4518587292755394e-05        0.0                           
2.5000207610395897            1.2711909324933755e-17        0.0                           
2.750000000000001             1.2786821619323732e-05        0.0                           
3.000008598045743             -4.418515836270473e-17        0.0                           
3.25                          -4.8886097952622396e-17       0.0                           
3.4999951440723907            8.160291216609861e-17         0.0                           
3.75                          -1.465715073955683e-05        0.0                           
3.9999803348846705            -1.9386820367805156e-16       0.0                           
4.25                          -2.991663367852288e-05        0.0                           
4.499964845929079             -1.9302649863330407e-16       0.0                           
4.75                          -4.583648119332283e-05        0.0                           
4.999948722277294             -4.294269117618717e-17        0.0                           
5.25                          -6.236060715676479e-05        0.0                           
5.499931993216779             -2.2022596989861087e-17       0.0                           
5.75                          -7.95316437005852e-05         0.0                           
5.999914575758247             -4.979261879390281e-17        0.0                           
6.25                          -9.751571843514708e-05        0.0                           
6.499896262974226             1.6221137903756798e-17        0.0                           
6.75                          5.912399332623269e-05         0.0                           
7.000057629915077             4.3329808637820964e-06        0.0                           
7.250004652558159             5.427948559378875e-05         0.0                           
7.50005239861365              5.347970711716505e-06         0.0                           
7.750005720025971             4.817363227545919e-05         0.0                           
8.00004581321909              6.50175750297706e-06          0.0                           
8.250006906619785             4.0568178889820344e-05        0.0                           
8.50003767734617              7.732004192653675e-06         0.0                           
8.750008147668387             3.1356355303313615e-05        0.0                           
9.00002793007167              8.973425438574122e-06         0.0                           
9.250009379263739             2.0567211124981367e-05        0.0                           
9.500016643400217             1.0167097695827064e-05        0.0                           
9.750010545328356             8.349322560650556e-06         0.0                           
10.000003983870174            1.126241102560775e-05         0.0                           
1.1662448279038162e-05        0.2999948018582242            0.0                           
0.24999000297695195           0.30001236919553415           0.0                           
0.500012679664989             0.29998008999711645           0.0                           
0.7499750029081578            0.3000132789843298            0.0                           
1.00001356890992              0.2999645975172717            0.0                           
1.249959287769909             0.3000141349134212            0.0                           
1.5000144142975202            0.2999484675601077            0.0                           
1.749942958598081             0.30001497574602604           0.0                           
2.0000152622078464            0.299931735678107             0.0                           
2.2499260141182362            0.30001585813487913           0.0                           
2.5000161722422805            0.2999143198682851            0.0                           
2.749908330170943             0.3000168438883784            0.0                           
3.0000172055044025            0.29989601252603804           0.0                           
3.2498896596839657            0.3000179891070081            0.0                           
3.5000080553402557            0.30005711794669665           0.0                           
3.7500555134817315            0.3000092939122034            0.0                           
4.000009973134604             0.3000519017188983            0.0                           
4.250049871786389             0.300011433734202             0.0                           
4.500012206490727             0.3000453183505375            0.0                           
4.750042781593643             0.3000138131354165            0.0                           
5.000014637106945             0.30003716784965845           0.0                           
5.250034087989674             0.3000163017511834            0.0                           
5.500017133023984             0.30002738744994745           0.0                           
5.750023773301962             0.3000187719631658            0.0                           
6.000019572136281             0.3000160421404282            0.0                           
6.250011936446478             0.3000211198271686            0.0                           
6.500021866175656             0.3000032632931549            0.0                           
6.749998720744224             0.30002333938613845           0.0                           
7.0000240490487275            0.29998926595853265           0.0                           
7.249984365870952             0.30002535664716323           0.0                           
7.50002596920063              0.29997427297164253           0.0                           
7.749969100564245             0.3000271444652011            0.0                           
8.000027713673875             0.2999585362823646            0.0                           
8.249953152461229             0.3000288325262309            0.0                           
8.500029390073962             0.29994219047039894           0.0                           
8.749936611287058             0.30003052321838064           0.0                           
9.000031108065171             0.2999252418927836            0.0                           
9.24991944088645              0.30003233780895955           0.0                           
9.500032991898728             0.29990756715875067           0.0                           
9.749901474226657             0.3000343998859429            0.0                           
10.000035161295495            0.299888915636649             0.0                           
5.7739806363018076e-05        0.6000120502784091            0.0                           
0.25001294952744135           0.6000546697297875            0.0                           
0.5000529436298172            0.6000149348995367            0.0                           
0.7500160109922502            0.6000490472559865            0.0                           
1.000046856598207             0.6000182986195604            0.0                           
1.2500194959713735            0.6000419520019039            0.0                           
1.5000392280365034            0.6000219604052283            0.0                           
1.7500232124639858            0.6000332250224003            0.0                           
2.0000299463834885            0.600025720191086             0.0                           
2.250026962571318             0.6000228472777804            0.0                           
2.500019035538109             0.6000293956909508            0.0                           
2.7500305776792704            0.6000109153890473            0.0                           
3.000006619612918             0.6000328632645746            0.0                           
3.250033967811986             0.5999976061727814            0.0                           
3.499992911917707             0.6000360864391245            0.0                           
3.7500370870383852            0.5999831867472976            0.0                           
3.9999781710358717            0.6000389701466676            0.0                           
4.25003986415699              0.5999678779348157            0.0                           
4.499962616344201             0.6000415863762638            0.0                           
4.750042425624097             0.5999518903087204            0.0                           
4.999946431898834             0.6000440903703426            0.0                           
5.250044928976065             0.5999353270882753            0.0                           
5.499929676745529             0.6000466534818657            0.0                           
5.750047553720536             0.5999181574216823            0.0                           
5.999912274204997             0.6000494656213625            0.0                           
6.250050490757442             0.5999002128283415            0.0                           
[...]
POINT_DATA  4141
SCALARS Con float 1
LOOKUP_TABLE default
0.0005210047575485872
0.0005634229109582977
0.000647248405949057
0.0007452442600420756
0.0008560137285519233
0.0009798893142255788
0.0011171285110147492
0.0012677685156990486
0.0014316042517526768
0.0016081840463863992
0.0017968151234921943
0.0019965777489096424
0.0022063464857209705
0.002424815809807095
0.002650525634613595
0.002881878787052675
0.0031171476423526943
0.003354458015593532
0.0035922786496734157
0.003833087260051891
0.004105101028528629
0.004378560416061506
0.004624098822947366
0.00485772184215096
0.00509185325179303
0.00532576692741801
0.0055597605943991935
0.005794407108915778
0.006030704451271907
0.006269995515164966
0.0065139258404476545
0.0067644069199673945
0.007023585079766925
0.007293812413429306
0.007577618007069001
0.007877677920056973
0.008196779604752652
0.008537733145631787
0.008902581611756935
0.009281636905674507
0.00949986459230642
0.0005295109107137443
0.0005729306376663931
0.0006584591307457814
0.0007582957118478414
0.0008710474361880294
0.0009970123142357373
0.0011364130815773481
0.0012892500785456776
0.0014552810713994592
0.0016340186069305064
0.001824737573757595
0.002026492137451481
0.002238141353765836
0.0024583828060996938
0.0026857946095579506
0.002918893088154959
0.0031562245695469127
0.0033966691778034414
0.0036399461534472213
0.0038924683067338975
0.0041486082457865515
0.00440086928505579
0.004646181309356164
0.004887857336204232
0.00512494702864605
0.005360278489072557
0.005594838714119889
0.005829693913804238
0.006066074440503495
0.006305463941704093
0.006549602554185551
0.006800474167748489
0.007060285687645591
0.00733144295193734
0.007616524399139103
0.007918252122387856
0.008239456488320515
0.008582988162755748
0.00895091377074962
0.009333697652651792
0.009554326608953846
0.0005248455818439485
0.0005682332334040358
0.000653919331278541
0.0007541605762033101
0.0008675336670989424
0.0009943256179039345
0.001134743175492929
0.001288769237434495
0.0014561436985347568
0.0016363624941488355
0.0018286876946745233
0.002032168732249397
0.0022456757710912975
0.002467947820535155
0.0026976630359286176
0.0029335466662051973
0.003174573854354797
0.003420205011304202
0.003671448054911529
0.0039214288648765725
0.004160539960338038
0.004399749156459632
0.00464724164455583
0.004891989624803346
0.0051324570783035876
0.005369375141963861
0.005604317376456254
0.005838668322990757
0.0060738994974171324
0.006311645561039116
0.006553750326474234
0.006802276453165713
0.007059498826127968
0.007327888757470875
0.007610092754087348
0.007908906884776709
0.008227243589226914
0.008568043690133103
0.008933480205597874
0.009314044313504816
0.009533450699014623
0.0005167439508135766
0.0005601749469185398
0.0006461584064300378
0.0007470667569881725
0.0008614702637304966
0.0009896328033565966
0.0011317341236331067
0.0012877267419174013
0.0014573184799375274
0.0016399732014269308
0.0018349230924761116
0.002041192820609264
0.002257636677832973
0.0024829904481803297
0.002715939359847226
0.0029552026527433473
0.003199580483150756
0.003447946218133807
0.003697272496846915
0.003943637065532529
0.0041867492182806896
0.0044280162857484795
0.00466938620200078
0.004911531241813438
0.005151158461472436
0.005387625142840071
0.005621566829640796
0.0058542111359617495
0.006087035763893675
0.006321742810274591
0.006560255889069348
0.006804721146186158
0.007057500770731443
0.007321160126840286
0.007598449656404216
0.007892281987880901
0.008205700723211843
0.008541793970855463
0.008902896223103472
0.009279755454871919
0.009497356458557208
0.0005052932218583631
0.0005487876496363309
0.0006352114481266558
0.0007370797673406899
0.0008529495813336235
0.0009830528225041174
0.0011275296205237471
0.0012862877076817564
0.001458986189326751
0.001645037296040011
0.0018436192681029234
0.0020537002831901964
0.002274073120152995
0.002503398480467309
0.002740250597133644
0.0029831411062265683
0.0032304870435846712
0.00348025777894248
0.003730110386658201
0.0039780947594620485
0.004223145807295508
0.004465780251313893
0.004706800676782112
0.004946003816441462
0.00518295413730266
0.00541694970888582
0.005648204148778019
0.005877608689812995
0.006106515517131429
0.006336606079211803
0.006569842170026375
0.006808441134628447
0.007054859278326421
0.007311775769468254
0.007582074661376248
0.007868823376432374
0.008175243234271124
0.008504624789998888
0.008859538852602562
0.00923110643624264
0.009446119097031146
0.0004903945512798627
0.0005339888510337189
0.0006210121366948719
0.0007241511027466719
0.000841942367993351
0.0009745745483187514
0.0011221350442849765
0.001284471574370832
0.0014611767707889743
0.001651589976583204
0.0018548092286345612
0.0020697127415320055
0.0022949883347740045
0.002529166816352018
0.0027706500734740506
0.0030177208247307934
0.0032684987404200984
0.0035209725187772614
0.003773150855310889
0.004023363182213874
0.004270656805176001
0.00451470420960187
0.004755503218565781
0.004993047521375988
0.005227098100567671
0.005457590267014627
0.005684779170335102
0.005909449336408079
0.006132857481915699
0.006356654912579305
0.0065828278356300455
0.0068136605580904515
0.007051710214094633
0.0072997866843552235
0.0075609337313622006
0.007838408582312316
0.008135654658010772
0.008456220482255528
0.008802984396772589
0.00916754992249865
0.009379111518130683
0.00047195142472483784
0.000515690492438137
0.0006034919856920283
0.000708233727104501
0.0008284234025547876
0.0009641943985711992
0.0011155679947569266
0.001282316862681004
0.0014639498501237162
0.0016597130119824356
0.0018685998775494113
0.002089370131719694
0.0023205751172879906
0.0025605867776289466
0.002807625504500743
0.0030597815986061626
0.0033150525318442793
0.0035714153588257812
0.0038269684663933554
0.004080124652975133
0.004329734088258184
0.00457510681318359
0.004815881078644659
0.005051860303438136
0.005282985732433783
0.005509367669461444
0.005731439506170861
0.005950028573422593
0.006166392271872731
0.0063821924516205995
0.006599458375228327
0.006820553458102353
0.007048149330808111
0.007285205101219013
0.0075349492515078
0.007800861456926464
0.008086648821882137
0.008396169988418765
0.00873267511794542
0.009088362429839238
0.009295518381082061
0.00044988290414497555
0.0004938199270964851
0.0005825958452821208
0.000689293065802537
0.0008123797719781535
0.0009519217257334848
0.0011078612095823718
0.0012798820355954164
0.0014673937780858763
0.0016695313370286764
0.0018851631675140515
0.002112907834378473
0.0023511581557208506
0.0025981116381516484
0.0028518061193092137
0.0031101647470405404
0.0033710570282433974
0.003632388002261886
0.0038922141183765956
0.004148860974485794
0.004401011598759718
0.004647724799139606
0.004888397591648287
0.00512271177951627
0.005350600858707401
0.005572278065837427
0.005788281144080444
0.005999527142984581
0.0062073349725714514
0.006413425383435197
0.006619902799837277
0.006829232799257412
0.007044221294787815
0.00726799720750486
0.007503997892539845
0.007755955371198267
0.008027878008669304
0.008323981606580912
0.00864794945495225
0.008992695881287788
0.009194381147993856
0.00042414770327143717
0.0004683403691757403
0.0005582985157381424
0.0006673188414490094
0.0007938177743794475
0.0009377809943530318
0.0010990601975614264
0.0012772387622443243
0.0014716143638046544
0.0016811961448412896
0.001904710514100897
0.002140616081664499
0.0023871282100480984
0.002642253429947835
0.0029038347458889926
0.0031696097604948944
0.0034372848256541224
0.0037046252797172476
0.003969555247784972
0.004230252638660341
0.004485219144830442
0.004733315062615603
0.004973760880271792
0.005206122793945123
0.005430305251317401
0.005646557151516182
0.005855494545506323
0.006058122603248304
0.0062558506452356465
0.006450493063931006
0.006644260523164521
0.006839746121336958
0.007039911604281443
0.00724807604924151
0.00746790744521942
0.00770341583912489
0.007958942982380313
0.008239103360529614
0.00854807102001204
0.008879602496797827
0.009074623718552194
0.0003947724837944865
0.00043927609368354026
0.0005306237516328042
0.0006423375650182455
0.0007727687130650459
0.0009218109458361224
0.0010892160610204032
0.001274458780941406
0.0014767160203502105
0.0016948601437284019
0.0019274613124875349
0.0021728005008004587
0.002428894762980947
0.002693535963038808
0.0029643438443937207
0.0032388339600508942
0.0035144996397892393
0.003788904545773836
0.004059778439854047
0.0043251053306550815
0.00458319348068144
0.0048327206983578485
0.005072756362302401
0.005302768284147161
0.005522623945656872
0.005732594078051133
0.00593335881870788
0.006126014626096022
0.006312077153325443
0.006493478879343794
0.006672561998314222
0.006852069754079171
0.007035138966662982
0.0072252959300251945
0.007426456173310165
0.007642927076350714
0.00787940847820401
0.008140947372467256
0.00843225950839133
0.008748072713365581
0.008935093875517323
0.00036188552679424754
0.00040674174836956506
0.0004996655137216208
0.0006144251092649098
0.0007492926731891415
0.000904059792887909
0.0010783727116297894
0.0012715940312994609
0.0014827759240078572
0.001710646979879574
0.00195360911584445
0.0022097473756705877
0.0024768552274232105
0.0027524770767424506
0.0030339685304948635
0.003318573435771123
0.0036035147270978636
0.0038860936915550326
0.004163789955762451
0.0044343533424899325
0.00469587960641635
0.004946865399969446
0.005186242306710004
0.0054133937436594394
0.005628160639041642
0.005830840849791043
0.006022185698383281
0.006203394397213617
0.006376106757374412
0.006542394486489404
0.00670475257308316
0.006866092814262648
0.007029741641581467
0.007199443689432344
0.007379371445582005
0.007574139922620582
0.007788821549436319
0.008028918888138151
0.008299730340935093
0.008597084279994307
0.00877461731547756
0.00032575548943359955
0.0003709754887352037
0.0004656106600879237
0.0005837183329841719
0.0007234790418852447
0.0008845751335965595
0.0010665471963989142
0.0012686489678687559
0.001489810397040502
0.001728614255118917
0.001983284425346244
0.0022516902016474784
0.0025313703462870527
0.0028195791431032675
0.0031133546173542836
0.0034096067520642094
0.003705221001650138
0.003997170112983083
0.0042826256569475744
0.004559060416738218
0.004824334053845915
0.005076757362261051
0.00531513388223669
0.005538781030618124
0.005747534833461334
0.005941743182621056
0.006122251941377508
0.006290387471516551
0.006447938372574939
0.006597138956579525
0.006740656823736845
0.006881586911459583
0.0070234538184557795
0.007170223585276917
0.007326324980612168
0.007496679022126972
0.00768673185670543
0.007902450399967365
0.008149742787531946
0.008425663693841972
0.008592066144604008
0.00028683412235922987
0.0003323746749496848
0.000428761667711015
0.0005504241637334183
0.0006954421184726136
0.0008633868642297399
0.0010537014369566015
0.001265543378674047
0.0014977317926016171
0.00174870816710167
0.002016511352836343
0.0022987729903534084
0.0025927386888658613
0.002895317904312483
0.0032031624406529055
0.0035127701490069428
0.0038206072167611457
0.004123239914287576
0.004417465277641225
0.004700430397826287
0.00496973170003859
0.005223488702645522
0.005460390296606751
0.005679715143548857
0.005881330293594642
0.006065673665861241
0.006233726419842015
0.006386980885117478
0.006527409164414388
0.006657436616167376
0.0067799238855898135
0.006898160198241313
0.00701586996815907
0.007137233684045749
0.007266922940798431
0.007410148043483322
0.007572713172755738
0.007761040347394624
0.007981656475525841
0.008232960098246173
0.00838644215982015
0.0002458004129390757
0.00029153161860445557
0.00038955699348033695
0.0005148239800848312
0.0006653098282753143
0.0008404813356035143
0.0010397036583136166
0.0012620638732718762
0.0015062938631746003
0.0017707074999223761
0.0020531555503720215
0.0023510074495855906
0.0026611675265549306
0.002980129708706101
0.003304070381658047
0.0036289744207331095
0.0039507851372688856
0.004265565726168585
0.004569658363576468
0.004859827624699576
0.005133377444913201
0.005388234689376594
0.005622997011371489
0.0058369469620478025
0.006030037783349013
0.006202858416911898
0.00635658614409968
0.00649293508261639
0.0066141077605840915
0.00672275591271644
0.00682195503656948
0.006915196204215249
0.00700639713695436
0.0070999335751337125
0.007200690687092621
0.007314132784590204
0.007446385760272303
0.007604295838992212
0.007794995490058908
0.00801833107173591
0.00815697480867095
0.00020360118883212307
0.00024926494464908364
0.00034858547887458424
0.00047727052929319024
0.0006332038353041463
0.0008157655913304734
0.0010242785207798572
0.001257802909921019
0.00151502424148456
0.0017941555126011629
0.0020928621447585632
0.0024082234050188775
0.0027367409941505276
0.0030744004155609616
0.0034167845779576387
0.0037592323785607135
0.004097029148640127
0.00442561141383882
0.004740766713336849
0.005038810345916411
0.005316724700645543
0.005572252482218573
0.005803941539713501
0.006011144916873357
0.006193984313208977
0.006353287997302111
0.006490515009785218
0.006607677151733044
0.006707268424165603
0.006792209741830248
0.0068658144412468295
0.0069317782334911635
0.0069941956272099
0.007057603635129819
0.007127052572825152
0.007208202501446182
0.007307440030851305
0.007431978712119008
0.007589518839466054
0.007781438768283891
0.007903231977771813
0.0001614804290468219
0.0002066396463732219
0.0003065896571295652
0.00043817508599465103
0.0005992105839639519
0.000789022440428697
0.001006946678147389
0.0012520854877144157
0.0015231439406570748
0.001818279720886086
0.002134984175159494
0.00247001406772387
0.002819388885383723
0.0031784617195922482
0.0035420629955139763
0.003904706788014505
0.004260840510155398
0.004605112559754339
0.004932630096381821
0.005239181246366333
0.005521402219316109
0.005776878515647194
0.006004178938614204
0.006202829535894051
0.006373240811187648
0.00651660471665402
0.006634778550602635
0.006730171208019259
0.006805644371250777
0.00686443784305681
0.006910125047276169
0.006946601897267377
0.006978110484186756
0.0070092976507699495
0.0070453081422477545
0.007091911953427064
0.007155662894368568
0.007244056922164809
0.007365294706947616
0.0075223529583275965
0.007625242310171774
0.00012098346458539751
0.00016496507860668213
0.0002644529589679049
0.00039798349498053705
0.0005633470520183584
0.0007598603754414402
0.0009869557944505952
0.001243885639667478
0.0015294763754868743
0.0018419023632788604
0.0021785047060926934
0.0025356802584499574
0.002908862021965312
0.003292603178257692
0.0036807646049187405
0.004066791239152528
0.00444404899139357
0.004806184124286637
0.005147463719488107
0.005463059777666482
0.005749249858692544
0.006003521278264247
0.006224580582933989
0.0064122822757822
0.00656749888181601
0.006691957639663098
0.006788068241925014
0.006858762318264547
0.0069073599683564
0.006937473524975672
0.006952953800666683
0.006957880757113513
0.00695659820416921
0.006953791149717315
0.0069546045429762435
0.006964803105101924
0.006990974889498336
0.00704076032689798
0.00712278362516841
0.007241654620483428
0.007323612222627325
8.392628516546314e-05
0.00012575891571389502
0.00022316170713373588
0.00035715334374811046
0.0005255313483013658
0.0007276586713873475
0.0009632065204190016
0.0012317394626437238
0.001532353721731295
0.0018633490240714703
0.00222195961054739
0.002604180879602242
0.0030047229065300472
0.003417111326418459
0.0038339379105889037
0.004247240335787315
0.004648968610103233
0.0050314798336779515
0.005387997677798645
0.005712980742262588
0.006002361600027915
0.006253642347379741
0.00646585532897489
0.006639415993841742
0.00677590458351516
0.006877815561315866
0.0069483092159893746
0.0069909921470382224
0.0070097441544400485
0.007008600892783362
0.006991695147975625
0.006963255491056696
0.006927658780000215
0.006889532631278005
0.00685390450951233
0.006826396318608411
0.006813464258357701
0.006822691557503757
0.006862910494354966
0.006940543163236766
0.006999679375419896
5.2266426733999554e-05
9.065391473683004e-05
0.0001837914732212347
0.00031615042341239565
0.0004855316808549362
0.0006915049798639851
0.000934187240475317
0.0012136734939327662
0.0015295392521627387
0.0018803712389533424
0.0022633738628521053
0.0026741010116192606
0.0031063639553043226
0.003552350932394233
0.004002967660725627
0.004448370657709829
0.004878628900858664
0.0052844211768658155
0.005657669339576936
0.005992021002578596
0.006283128558614894
0.006528711102418796
0.006728424214936842
0.0068835875498404675
0.00699683213494888
0.007071725922411379
0.007112425676229136
0.007123387247425337
0.007109151965527092
0.007074214278979736
0.007022968050605707
0.0069597242361159615
0.006888792009898655
0.006814615566402996
0.006741961758927603
0.006676154766109238
0.006623358746188027
0.0065908832010997
0.006587449600972144
0.006620880961582753
0.006655402830989434
2.8212862379019446e-05
6.140612715481141e-05
0.00014748317686520506
0.00027535222371827023
0.0004429463918037064
0.0006502526642484337
0.000898065432096995
0.0011873052944598656
0.001518322119645666
0.0018902351605149853
0.002300356032938589
0.0027437733336314767
0.0032131791536630467
0.003699003369577439
0.00418988034613396
0.004673413044379281
0.0051371334943640995
0.0055695102054509026
0.005960838557078912
0.00630387861825968
0.006594164871038962
0.006829984455925188
0.007012081404293006
0.007143180707253518
0.007227433724741789
0.007269873397878826
0.007275941738767577
0.007251124894849358
0.007200707412573943
0.007129641094594645
0.007042514919619298
0.006943609594974769
0.006837021774674349
0.00672684670186428
0.006617412961490852
0.0065135678155439775
0.006421011579071274
0.00634669077821496
0.006298996620268748
0.0062869072520415625
0.006295097130540036
0.0004081507580559536
0.0006158970980931821
0.0011676529252273003
0.0023512016805229663
0.0028317738673186237
0.003873963789146759
0.004409339314337741
0.005431889716650503
0.005889490810270736
0.006641537837252001
0.006924103584867164
0.007142512948704046
0.0072992574247083605
0.007399051052089193
0.007448017863187188
0.007452953472028901
0.006770003550440271
0.006627136337007249
0.006105285179716358
0.006017068343845859
0.00594573903919833
1.3918241517489226e-05
4.244554075334782e-05
0.00012101634213207958
0.00024337640933497017
0.0008683872480825792
0.0015150697825210494
0.0019104447012848879
0.0033433325712869176
0.004933828875710589
0.006295314559621255
0.007420733068139753
0.00735789413403224
0.0072703901753263765
0.007163493009824069
0.007041814408860559
0.0069094186130393715
0.006484537127854338
0.006346413213247285
0.006217854276261929
0.0059627175002944025
8.449203571371738e-06
3.1536978432636924e-05
0.00010158159372226696
0.0002167680476487746
0.0003756851803609187
0.0005793535892054014
0.0008302561928785875
0.0011313420397611727
0.0014849255962107732
0.0018915981322645853
0.002349211915994161
0.002852083330435201
0.003390586450369608
0.003951298718665247
0.004517782763956208
0.005071952811729299
0.005595817986969915
0.006073276454396884
0.006491610708028144
0.006842417232145964
0.007121862936190265
0.007330326369153417
0.007471601811316698
0.007551888528848842
0.007578768812486854
0.007560319199770552
0.007504432580653119
0.007418370282536792
0.007308525193983554
0.007180357228537787
0.007038458353504531
0.006886709753327804
0.006728503254107097
0.006567010610469233
0.006405494994981203
0.0062476671667403075
0.006098101290366999
0.0059627100879590025
0.0058493315785473265
0.005767771499838532
0.0057351752978008555
6.679382921818412e-06
2.4652626782262397e-05
8.65768886542094e-05
0.00019474317027370742
0.0003478810110344735
0.0005474284624780297
0.0007966761353774452
0.0010995767653416775
0.0014594921648948835
0.0018778991562006953
0.0023531493122902476
0.0028794477841824484
0.0034462800198311358
0.004038513273242592
0.004637308733553687
0.0052217993405740196
0.005771268489101993
0.0062673931773277285
0.006696078563577534
0.007048533094521658
0.00732146066966282
0.00751647841608607
0.007639021172881149
0.007697036938091416
0.007699731689462837
0.007656531630483647
0.007576336798276602
0.007467067416982811
0.0073354609450864494
0.007187060947189004
0.007026339848261878
0.006856908872605587
0.006681783291311405