# vtk DataFile Version 2.0
time_10.vtk
ASCII
DATASET UNSTRUCTURED_GRID
POINTS   4141  float 
3.033704908432489e-05         2.4848229972243736e-18        0.0                           
0.2499999999999992            2.8699594179173363e-05        0.0                           
0.5000277891088755            2.7590721719800076e-16        0.0                           
0.75                          2.5755079874056533e-05        0.0                           
1.0000246217179822            2.138949119743635e-17         0.0                           
1.25                          2.210366764174832e-05         0.0                           
1.5000207140748523            4.5739856767548005e-17        0.0                           
1.7500000000000004            1.766805829542336e-05         0.0                           
2.0000160119600427            7.76413362447963e-17          0.0                           
2.25                          1.2440709261399227e-05        0.0                           
2.500010530906535             2.5983200237324637e-18        0.0                           
2.75                          6.483703154705523e-06         0.0                           
3.0000043599919026            2.51101816140751e-18          0.0                           
3.25                          8.413207933633992e-17         0.0                           
3.499997555040005             6.628373829389662e-16         0.0                           
3.75                          -7.3823933405689425e-06       0.0                           
3.999990096291651             1.645470678861919e-17         0.0                           
4.25                          -1.5059722242812976e-05       0.0                           
4.499982309001963             1.448863428250351e-16         0.0                           
4.75                          -2.3051606737239704e-05       0.0                           
4.999974221086406             -1.1454293113776255e-16       0.0                           
5.250000000000001             -3.132741624343264e-05        0.0                           
5.499965849187348             -1.0681958678805067e-16       0.0                           
5.75                          -3.9907377730439594e-05       0.0                           
5.9999571524545825            -1.4041444010077376e-16       0.0                           
6.249999999999999             -4.887489419352982e-05        0.0                           
6.499948026534755             5.824210612812844e-16         0.0                           
6.75                          3.0253008104704916e-05        0.0                           
7.0000294638484535            2.282510736417378e-06         0.0                           
7.250002438662489             2.770810109516261e-05         0.0                           
7.500026729007819             2.779667853082209e-06         0.0                           
7.750002962599924             2.4541887680520094e-05        0.0                           
8.00002332553694              3.347680734120847e-06         0.0                           
8.250003547373424             2.0632761315420816e-05        0.0                           
8.500019153162029             3.954763151068285e-06         0.0                           
8.75000415997662              1.592613859114723e-05         0.0                           
9.000014180676532             4.567554226807862e-06         0.0                           
9.250004767747015             1.0436640896245143e-05        0.0                           
9.500008444531032             5.155985933881211e-06         0.0                           
9.750005342143789             4.239598200870836e-06         0.0                           
10.000002029736882            5.694470186546006e-06         0.0                           
5.889241601060871e-06         0.2999973904461409            0.0                           
0.24999497008009122           0.3000062334074857            0.0                           
0.5000063847002584            0.2999899767892649            0.0                           
0.7499874171833041            0.3000066757518963            0.0                           
1.0000068160874704            0.2999821875442231            0.0                           
1.2499795219890588            0.3000070893035573            0.0                           
1.5000072238784548            0.2999740965014493            0.0                           
1.749971337438292             0.30000749402828863           0.0                           
2.000007631851291             0.2999657232253833            0.0                           
2.2499628643058376            0.3000079189024238            0.0                           
2.500008070519303             0.2999570273199318            0.0                           
2.7499540406670353            0.30000839569959736           0.0                           
3.0000085713838125            0.29994790411088107           0.0                           
3.249944741535356             0.3000089534829749            0.0                           
3.5000042672684084            0.300029215029891             0.0                           
3.7500283720137637            0.30000487160020844           0.0                           
4.000005204333609             0.30002648788179304           0.0                           
4.250025435221483             0.30000592193493464           0.0                           
4.500006302414476             0.30002308551098855           0.0                           
4.750021781695922             0.3000070946031537            0.0                           
5.000007501247463             0.3000189058606373            0.0                           
5.2500173323761               0.3000083230592534            0.0                           
5.5000087334169585            0.30001391691765567           0.0                           
5.750012078288635             0.30000954202716834           0.0                           
6.000009936441564             0.30000815202239856           0.0                           
6.250006070281737             0.30001069821373066           0.0                           
6.500011064790473             0.30000167996149524           0.0                           
6.749999383842545             0.30001178556031727           0.0                           
7.0000121316575195            0.29999461127135946           0.0                           
7.249992141325167             0.3000127684759099            0.0                           
7.500013066107892             0.29998706054111884           0.0                           
7.749984459878527             0.3000136354301958            0.0                           
8.00001391036946              0.29997915448432566           0.0                           
8.24997645390289              0.30001444957511936           0.0                           
8.500014717865765             0.29997096174423765           0.0                           
8.749968169737729             0.3000152629460392            0.0                           
9.000015544466407             0.29996248664366193           0.0                           
9.249959590153193             0.3000161375311296            0.0                           
9.500016453816563             0.299953667591609             0.0                           
9.74995063129862              0.3000171369767027            0.0                           
10.00001750776515             0.2999443779576523            0.0                           
2.957986044337434e-05         0.6000063842414056            0.0                           
0.25000682234762944           0.6000279621797207            0.0                           
0.500027059578554             0.6000077938456518            0.0                           
0.7500083221451318            0.600025035221091             0.0                           
1.0000239030689448            0.6000094478852878            0.0                           
1.2500100380961758            0.600021379264621             0.0                           
1.5000199825026739            0.6000112541295779            0.0                           
1.7500118722698954            0.6000169132964008            0.0                           
2.0000152410831746            0.6000131103293285            0.0                           
2.250013723436691             0.6000116278739883            0.0                           
2.500009691394559             0.6000149230659192            0.0                           
2.750015505042376             0.6000055731145629            0.0                           
3.0000033979264416            0.6000166280907542            0.0                           
3.2500171693584043            0.599998840545387             0.0                           
3.499996470097306             0.600018204580282             0.0                           
3.7500186922320506            0.5999915656560012            0.0                           
3.9999890395576387            0.6000196076527966            0.0                           
4.250020041009837             0.5999838621515475            0.0                           
4.49998121879938              0.6000208734479461            0.0                           
4.750021278077469             0.5999758366101143            0.0                           
4.999973100873109             0.6000220793447818            0.0                           
5.250022482649052             0.5999675416767875            0.0                           
5.499964716286342             0.6000233123667511            0.0                           
5.750023746120276             0.5999589625504199            0.0                           
5.999956027048641             0.6000246696446416            0.0                           
6.250025166379769             0.599950014635301             0.0                           
[...]
POINT_DATA  4141
SCALARS Con float 1
LOOKUP_TABLE default
0.000146363215097975
0.00015721572895987339
0.00017869280744181373
0.0002037636640423323
0.00023205618278413363
0.00026364527142493175
0.0002985876101867221
0.000336884277748448
0.00037847512900881044
0.00042323768785596823
0.0004709885454590288
0.0005214869986859637
0.0005744405551648475
0.0006295116481348506
0.0006863244707239764
0.000744469992868807
0.0008035083393009276
0.0008629652019834538
0.0009224461307193344
0.0009825004334694627
0.001049822547913453
0.0011173091530080153
0.001178025805346133
0.0012357640600545172
0.0012934630898455612
0.0013509502139153564
0.0014083068073998512
0.001465686405106672
0.00152334925405062
0.0015816427873662636
0.001640991346272902
0.001701887313101758
0.0017648835997435537
0.0018305866990268548
0.0018996498290765253
0.001972765777602062
0.0020506582712079263
0.0021340593659794245
0.0022235072402346442
0.0023165946052510593
0.002370196991264312
0.00014859513892382574
0.0001596999280742584
0.00018161064047167409
0.0002071486009547786
0.0002359426708241505
0.0002680588575190958
0.00030354494655862184
0.0003423926107017336
0.0003845322376594567
0.00042983223435677964
0.00047810093467907813
0.0005290909143834642
0.0005825055416986308
0.0006380075934665375
0.0006952299756067765
0.0007537902125328269
0.0008133129134697473
0.0008735022454668255
0.0009342614858705549
0.000997091238079483
0.0010606213548749594
0.0011230844002894256
0.0011837297796683252
0.0012433506851174472
0.0013017202401742806
0.0013595147965656021
0.0014169794201900807
0.0014743847485070743
0.0015320463151121768
0.0015903452420941698
0.0016497286641102304
0.0017107064881412947
0.0017738463454020758
0.0018397677991234503
0.0019091360778618247
0.001982655174763055
0.0020610592595886675
0.002145090291507327
0.0022352924956518276
0.0023292982495863707
0.002383492205861113
0.0001473367398063874
0.00015843698027189607
0.00018039433463916914
0.000206043263415593
0.00023500404813198166
0.00026733942580896443
0.0003030926566498776
0.0003422505307279587
0.00038473843933879964
0.0004304200857616807
0.00047910000017161006
0.0005305288732933702
0.0005844119406964803
0.0006404210109794092
0.0006982118612099331
0.0007574505936414859
0.0008178625531234685
0.0008792891266495587
0.0009419445929960631
0.0010041741420115438
0.0010636874942236002
0.001123065240512303
0.0011842322124570013
0.0012445662605431289
0.001303714305904957
0.0013618593767671572
0.0014193875371253072
0.0014766450306904792
0.0015340044659733379
0.0015918826648558392
0.0016507512833775226
0.001711138873634803
0.0017736291522666135
0.0018388571853297786
0.0019075043280515447
0.00198029215046951
0.0020579744192632944
0.002141314875959977
0.0022308845658498863
0.0023243271441547825
0.0023782157075246725
0.00014515593582420264
0.00015627302825565998
0.00017831800632537472
0.0002041508057762843
0.0002333890889024401
0.0002660889023461046
0.0003022858965267593
0.0003419584115509714
0.0003850229616356831
0.0004313343612995309
0.0004806887665437859
0.0005328297131042078
0.0005874574030920009
0.0006442416363316437
0.0007028386814773932
0.0007629122349642827
0.0008241456689801208
0.0008862424511497636
0.0009484581556367466
0.0010098429374018616
0.0010703116057073025
0.0011301767141327552
0.0011898817968151447
0.0012495849937679186
0.0013085093259408674
0.001366514402023164
0.0014237665084074031
0.0014805764677753553
0.0015373192639125748
0.0015944282148079732
0.0016523942108185616
0.0017117658055238632
0.0017731475719869212
0.0018371970144676997
0.0019046203220742161
0.0019761670212043807
0.0020526225827766018
0.0021347868759585774
0.002223271454700417
0.0023157862325676078
0.0023692226677975024
0.000142072878962007
0.00015321470548777466
0.00017538900640511843
0.0002014864417299306
0.00023111985458775663
0.00026433607481365896
0.0003011596471225812
0.0003415565324096524
0.00038542989946463527
0.0004326205080537964
0.0004829099109322686
0.0005360264604490495
0.0005916540397044337
0.0006494430227244599
0.0007090219614436741
0.0007700043255490405
0.0008319823820417065
0.0008944446486249277
0.0009568093755246539
0.0010185911475895754
0.001079516680874088
0.0011396927653109297
0.0011992987271655052
0.0012582798613303059
0.0013165365580223918
0.0013739129802450957
0.001430476657154536
0.0014864604870486846
0.001542211210709154
0.0015981583037571684
0.0016548024181343522
0.001712709456416153
0.0017725066324308474
0.0018348786980672673
0.0019005638409592743
0.001970348801596253
0.0020450620919013535
0.002125553096712474
0.002212491915191237
0.0023036803192119882
0.002356463679857297
0.00013806014033139978
0.00014923888994652953
0.00017158889573394554
0.00019803683581531592
0.00022818851473730166
0.0002620783451198997
0.0002997161491586893
0.00034105137580110913
0.0003859691077753007
0.0004342904765417733
0.0004857756784860412
0.0005401294381402309
0.0005970085543232207
0.0006560305873915854
0.0007167814993772834
0.0007788191642534773
0.000841664191751157
0.0009048086412012948
0.0009677522181092706
0.0010300740132310963
0.0010915282106287107
0.0011520225868129896
0.0012115474702728852
0.0012700980380490957
0.0013276203477836097
0.0013841095993120606
0.0014396434843308964
0.0014944308601965513
0.001548797334411536
0.0016031665457136074
0.00165804592251171
0.0017140179352326135
0.0017717341677896102
0.0018319107165847164
0.0018953240021124572
0.001962806315659072
0.002035239732903375
0.002113536218325289
0.0021984406638899294
0.0022878744896579644
0.0023397897712976023
0.00013309015528959912
0.00014432052499019737
0.0001668982482431158
0.0001937887604303157
0.0002245881666947569
0.00025931511065119717
0.0002979609919188884
0.0003404546521610852
0.0003866584460152029
0.00043636849569797666
0.0004893173351872687
0.0005451787545592208
0.000603574480864313
0.0006640818953383267
0.0007262416876541075
0.0007895641211369111
0.0008535390199467334
0.0009176538557944966
0.000981428170653467
0.0010444604313367628
0.0011064582088591362
0.0011672442935644635
0.001226725461473751
0.0012848535669823314
0.0013416194951034381
0.0013970608005960652
0.0014512983412696071
0.0015045522599602156
0.001557149717370417
0.0016095182098567894
0.0016621764828958466
0.0017157265649794748
0.0017708477102622462
0.0018282917376615123
0.0018888791630394845
0.001953495443359495
0.002023085912555101
0.0020986372762964597
0.0021809848450350887
0.002268198366873969
0.0023190082416341966
0.00012713860557359274
0.00013843784953798956
0.00016130061015903155
0.00018873190814161606
0.00022031496023223085
0.00025604914618610717
0.0002959038539041463
0.0003397835063671494
0.0003875235096493797
0.0004388901815881257
0.0004935829399159627
0.0005512386945526944
0.0006114382708813057
0.0006737145538733402
0.000737562045408972
0.0008024487300532609
0.0008678317194607802
0.0009331794969203567
0.000998000491558164
0.0010618721000685125
0.0011244626490680319
0.0011855363039993702
0.0012449442127351865
0.0013026116580800403
0.0013585300496792008
0.0014127635950292824
0.001465459690045245
0.0015168613836760965
0.0015673119799279184
0.0016172543644746103
0.0016672262576236682
0.0017178547185524907
0.0017698513105783597
0.001824008332072702
0.0018811959290171174
0.0019423595728815365
0.002008516516395043
0.0020807392653176787
0.0021599683460654267
0.0022444518254358566
0.002293892638750745
0.0001201905654149947
0.0001315776406258631
0.00015478675476334331
0.00018286195554047626
0.00021536991499063762
0.0002522872273272248
0.0002935579826541331
0.00033905890318698786
0.0003885949019597037
0.0004418984443008917
0.0004986311849003419
0.0005583880193954375
0.0006207036768392959
0.000685061887843612
0.0007509073264795875
0.0008176606939128453
0.0008847376275817373
0.0009515714017520651
0.0010176378520555269
0.0010824790694738211
0.0011457209084664204
0.0012070817428338095
0.0012663728672373986
0.0013234947810011716
0.0013784350394896072
0.001431269312493991
0.0014821663058576602
0.0015313923189053994
0.00157931408910853
0.0016263983310601537
0.0016732091616605597
0.0017204046279691472
0.001768733561339481
0.0018190333242559802
0.0018722285377991191
0.00192933041927715
0.001991435412236744
0.0020597114098704437
0.002135217772080818
0.002216411772196921
0.002264189402293893
0.00011224778215088655
0.0001237417129769463
0.0001473596098377463
0.00017618382896007688
0.00020976048980408574
0.0002480400229530906
0.00029093848850315863
0.00033830243973372227
0.00038990364287382116
0.00044543748889520267
0.0005045238186535461
0.0005667105627782713
0.0006314805846626345
0.0006982619930509397
0.0007664420796044684
0.000835384918799043
0.0009044523533677512
0.0009730274646646661
0.001040538698849594
0.0011064819724717872
0.0011704381300009082
0.0012320840824518332
0.0012911979561787477
0.0013476602815842053
0.0014014536287756986
0.001452662699908458
0.0015014749971836187
0.001548181588811463
0.0015931769757275775
0.0016369577931980724
0.0016801206289349603
0.0017233597846391107
0.0017674656829132593
0.0018133244423811743
0.0018619187266856823
0.001914329580839431
0.001971737988560552
0.002035414786601108
0.0021065499429609013
0.0021838412933521158
0.002229627906778179
0.00010333741913829478
0.0001149545429874838
0.0001390398219408236
0.00016871504722829354
0.00020350167315160092
0.0002433209972427984
0.0002880592332583382
0.0003375314642615384
0.0003914748293734409
0.00044954535427803213
0.0005113174663511072
0.0005762869165440126
0.000643877737183326
0.0007134536300191262
0.0007843338420460801
0.0008558132119385718
0.000927185554854432
0.000997768991959885
0.0010669312527499925
0.0011341127258964706
0.0011988452209391281
0.0012607652670760601
0.001319621919222829
0.0013752800644070986
0.0014277207749850184
0.0014770400266550443
0.0015234467185081114
0.0015672601879898919
0.0016089074850608029
0.0016489204916264352
0.001687933367220025
0.0017266808740559038
0.0017659981353298222
0.0018068221863140608
0.0018501953830413226
0.0018972703918442504
0.0019493154878602954
0.002007709238585325
0.0020737813859982583
0.0021465015056301028
0.002189933510341297
9.352221733586201e-05
0.00010527199254897224
0.00012987177429402537
0.00016048887688373403
0.00019661627327145626
0.00023814398083844983
0.0002849279587378523
0.00033675219176970586
0.0003933192949564366
0.0004542447894938872
0.0005190545246256557
0.0005871863368742128
0.0006579968635894464
0.000730774027161997
0.0008047551413127172
0.0008791500051010162
0.0009531676971062785
0.0010260452275525456
0.0010970758095168577
0.0011656344892434316
0.0012311991901555546
0.0012933660166076397
0.0013518585427571416
0.0014065317267790757
0.0014573715967007793
0.0015044920381758397
0.0015481299086715907
0.0015886394009572273
0.0016264864886641021
0.0016622440866754596
0.001696588596091063
0.001730298424197874
0.0017642549555102421
0.0017994462454975122
0.001836973452170679
0.0018780596614215727
0.0019240598466647204
0.0019764615127091365
0.0020367398306074193
0.002104166233156099
0.0021448439373602944
8.291187486851358e-05
9.47908418433362e-05
0.00011992973112442607
0.0001515569038879476
0.00018913397614586666
0.00023251893489023912
0.0002815391836204298
0.0003359503471937978
0.00039542279223264324
0.0004595319421824041
0.0005277524423711881
0.0005994577598159099
0.0006739265254830607
0.0007503562907841197
0.000827884572271674
0.0009056161835126196
0.000982655041899195
0.0010581380144311394
0.0011312680403596177
0.00120134386355271
0.00126778417716614
0.0013301448658634095
0.0013881289177456399
0.0014415896099526802
0.001490528118814065
0.0015350871751720354
0.0015755424137962137
0.0016122928876206267
0.0016458521777837941
0.0016768410838346596
0.0017059828926446231
0.0017341018493328459
0.001762125339459274
0.0017910899994661887
0.0018221517020766086
0.001856599017865467
0.0018958688792092926
0.001941554488470556
0.001995277626514208
0.0020566395444905974
0.0020941290306270666
7.167503317051474e-05
8.365855807871023e-05
0.00010932350148940775
0.00014199045616578997
0.00018108862616655942
0.0002264454206219896
0.00027786437586246865
0.00033507880514218236
0.0003977321286579511
0.00046536223508818534
0.0005373907092663289
0.0006131192383197531
0.0006917350802471769
0.0007723265014849263
0.0008539079455898503
0.0009354534805898979
0.0010159359598061748
0.001094368556775603
0.0011698450347324531
0.0012415752795594329
0.0013089134210392615
0.0013713768731997544
0.0014286559238503404
0.001480614589183663
0.001527284375285132
0.0015688530385151677
0.0016056506533962361
0.0016381351385992666
0.0016668790849985664
0.0016925594316317919
0.0017159510602097225
0.0017379251333805637
0.0017594526135213276
0.0017816131735647056
0.0018056094028962792
0.0018327858864092496
0.0018646517505672136
0.0019028973908778864
0.0019492869465743432
0.0020037760334678644
0.002037613898194768
6.005072596926699e-05
7.208220886727325e-05
9.820273803852479e-05
0.00013188015233125993
0.00017251325267355412
0.0002199033951227296
0.0002738390470541401
0.00033404183820810404
0.00040013781772982586
0.00047163300627416684
0.0005478952064456872
0.0006281456340297209
0.000711463004135956
0.0007968013356278
0.0008830211097489908
0.0009689316162313995
0.0010533408620485274
0.0011351082901263118
0.0012131952092315926
0.001286708288821243
0.0013549325489409002
0.0014173518716290026
0.001473656795280403
0.0015237408729806624
0.0015676880094826278
0.001605753891325968
0.0016383446121289037
0.0016659955342408974
0.0016893527310732825
0.001709158940539256
0.0017262452537375784
0.0017415293560907464
0.0017560206949590069
0.0017708327060700008
0.0017872020037360832
0.0018065141603307588
0.001830334811486725
0.0018604367913761255
0.0018987164485599903
0.0019455034456168545
0.001975204938887886
4.8357337342509285e-05
6.0334803974478404e-05
8.675852200417495e-05
0.00012133294371723089
0.00016343263657983838
0.00021284143045453065
0.0002693468549860625
0.00033267589773994493
0.00040245312144596016
0.0004781628306588424
0.0005591200100433973
0.0006444549837969006
0.0007331154491095168
0.0008238877138253869
0.0009154365599527387
0.0010063606793244534
0.0010952582842230429
0.0011807959958319045
0.0012617736814452521
0.0013371786424350154
0.0014062244118550776
0.0014683718458299302
0.001523332736699197
0.0015710582961312447
0.0016117164610033956
0.0016456624465745625
0.0016734071344471852
0.0016955871371019573
0.0017129395839427753
0.0017262837771168911
0.001736510947936325
0.0017445827585673504
0.0017515387064506666
0.0017585123436694753
0.0017667561903456119
0.00177767521023414
0.0017928681580415197
0.001814168945386286
0.0018435888252008087
0.0018818469002727296
0.0019069185622780716
3.699560940283491e-05
4.87562929506335e-05
7.52209373777215e-05
0.00011046620016047513
0.0001538542753396399
0.00020516322612261026
0.0002642010089903433
0.0003307272678949529
0.0004043899481553619
0.00048466809973929744
0.000570827358026248
0.0006618945356273955
0.0007566565633535152
0.0008536865819393643
0.0009513965429876686
0.0010481118829642692
0.0011421602454553075
0.0012319639178934502
0.001316125040120297
0.0013934941288611855
0.0014632154201480562
0.0015247465486471741
0.0015778538957558206
0.0016225880252119845
0.0016592455107676753
0.0016883239134374214
0.0017104761738380814
0.0017264695344814584
0.0017371524403571505
0.0017434317100940419
0.0017462608271674198
0.0017466395985308448
0.0017456248214997824
0.0017443515124108914
0.0017440643157546306
0.0017461590268426845
0.0017522348932852009
0.0017641530804689489
0.0017840205202612443
0.0018129531810581136
0.001832908415133257
2.6443358648422637e-05
3.7746198869442406e-05
6.385005529817392e-05
9.940199387522338e-05
0.00014376023107080376
0.00019671222916741444
0.0002581236749952332
0.00032782810425883
0.00040553342075979834
0.0004907386396067934
0.0005826675114488825
0.0006802283327738479
0.0007820078447490531
0.0008863038601689517
0.0009911964089937204
0.0010946508707146152
0.0011946410811811135
0.0012892763547216438
0.001376915828403847
0.0014562559956125785
0.0015263827054961268
0.00158678535239919
0.0016373370014485097
0.0016782486037701782
0.00171000747570943
0.0017333102339987226
0.0017489987726477443
0.0017580055516059478
0.001761311999243897
0.0017599217405979211
0.0017548488302423597
0.001747120270594704
0.0017377916929320082
0.0017279751147923352
0.0017188779561115987
0.0017118530762356835
0.0017084598622161427
0.0017105380933568255
0.001720238196459359
0.0017391160236939424
0.0017535019499295465
1.722451126734242e-05
2.7741000818715166e-05
5.2933771128069774e-05
8.826619507277275e-05
0.0001330924698713761
0.000187253373800753
0.00025072664173182664
0.0003234754575023846
0.0004053196431260238
0.0004958161804712063
0.0005941615991971664
0.0006991291606836404
0.0008090536816224937
0.0009218724372704646
0.0010352230135067333
0.0011465890218560033
0.0012534749733353577
0.0013535849848837023
0.001444979137942127
0.0015261860690545825
0.001596260061178414
0.0016547817332501944
0.0017018111559144971
0.0017378079938363505
0.0017635353280227707
0.0017799621481186171
0.0017881759401675349
0.001789312555964881
0.0017845066610786523
0.0017748631483193655
0.0017614480822562496
0.001745296921467447
0.0017274378713072918
0.001708928289599772
0.0016909031443281548
0.0016746346789040447
0.0016616037510042564
0.0016535766135618417
0.0016526712195055477
0.0016607839425073782
0.0016691704320775287
9.945921891977093e-06
1.9222703800765985e-05
4.2783031145108655e-05
7.716191842775396e-05
0.00012174508678735219
0.00017648433407255732
0.00024153024058547705
0.0003170515027526416
0.0004030536336056084
0.0004992102199672852
0.0006047189017195178
0.0007182029700643065
0.0008376791405261501
0.0009606075041989041
0.0010840276121830107
0.0012047684896509738
0.0013197028757563458
0.0014260047193529642
0.001521366990753659
0.0016041468140787346
0.0016734222325831137
0.0017289641906053233
0.0017711424142501707
0.001800791629086508
0.0018190646960245561
0.0018272944453196897
0.0018268783760070019
0.0018191932113603034
0.0018055405188276944
0.0017871208809361455
0.0017650323942192338
0.0017402889955523521
0.001713854786655162
0.001686691707840729
0.0016598192279626677
0.0016343859233334643
0.0016117529391178572
0.0015935918823298235
0.0015819348064298867
0.0015789633512599624
0.0015809392254137772
0.00011248082458845455
0.0001675626400136635
0.0003124492832137815
0.0006190055462421708
0.0007421592999463234
0.0010067211624966983
0.001141216845284685
0.001395028499241704
0.001507045287282071
0.0016882091569411827
0.0017548827017456253
0.001805496068629192
0.0018408933935321157
0.001862424501339596
0.0018717354653327407
0.0018705862762829206
0.0016965457850761187
0.0016615522294510323
0.0015343058371923256
0.0015128058401742558
0.001495388859331596
5.316354105694571e-06
1.3489755753053411e-05
3.528480583949078e-05
6.842233557538172e-05
0.00023406981676610765
0.0004029540588000642
0.0005054087632145834
0.0008724559999256332
0.0012719477560318663
0.0016053456697121284
0.00186071082503264
0.0018437232256604521
0.0018210671101421755
0.0017940006717625107
0.0017636094507253522
0.0017308395143203485
0.001626722966040588
0.0015930450479506423
0.0015617260437349207
0.001499541262768353
3.2832137508867637e-06
1.0107156206252187e-05
2.979344103410884e-05
6.118049640323469e-05
0.00010384404281310086
0.0001580139546096675
0.00022427837894859224
0.00030331855770466686
0.00039562043220694125
0.0005011937715509651
0.0006193160404749888
0.0007483406174422867
0.0008856142921010407
0.0010275441913741143
0.0011698309444900957
0.0013078471491568301
0.0014370991020231634
0.001553681983583602
0.001654638152828614
0.001738155731584258
0.0018035898062875927
0.0018513313258631892
0.00188257658063128
0.001899056891859698
0.0019027791617534284
0.00189581011776816
0.0018801193240629874
0.0018574817476181154
0.0018294321607391667
0.0017972601594868278
0.001762034366327287
0.0017246468262105234
0.0016858708729477374
0.0016464292072250718
0.0016070711918913768
0.001568660545407347
0.0015322774466296524
0.0014993354646657582
0.001471727027015722
0.0014518378642462831
0.0014438806014719936
2.3154210029325185e-06
7.851386036289062e-06
2.550914202841155e-05
5.516544513972771e-05
9.643812152647743e-05
0.0001496722945464734