# vtk DataFile Version 2.0
time_10.vtk
ASCII
DATASET UNSTRUCTURED_GRID
POINTS   4141  float 
8.897241568695833e-05         6.340845679521543e-17         0.0                           
0.24999999999999933           8.461324771269446e-05         0.0                           
0.5000821269894556            9.882589988679048e-18         0.0                           
0.7500000000000001            7.645375748538458e-05         0.0                           
1.0000732378125354            -2.169463125809787e-17        0.0                           
1.2500000000000004            6.599242646715669e-05         0.0                           
1.5000619486108566            -1.2093789494886894e-17       0.0                           
1.75                          5.300226646023431e-05         0.0                           
2.0000481008939754            6.030996234507077e-17         0.0                           
2.25                          3.746361533994298e-05         0.0                           
2.5000317441535143            2.1523209688150346e-17        0.0                           
2.7500000000000004            1.9568958397631137e-05        0.0                           
3.000013158503585             1.4068062007295734e-17        0.0                           
3.25                          1.4123926879938593e-17        0.0                           
3.4999924669773903            6.669648938211291e-17         0.0                           
3.75                          -2.2728817991615073e-05       0.0                           
3.9999694959870804            9.002103654070423e-17         0.0                           
4.25                          -4.645505140656087e-05        0.0                           
4.499945376432746             -5.069078640283704e-17        0.0                           
4.75                          -7.132547238577271e-05        0.0                           
4.999920145910013             4.166125217870181e-17         0.0                           
5.25                          -9.726913772802828e-05        0.0                           
5.499893836832041             -9.096694851124022e-19        0.0                           
5.75                          -0.0001243607566851799        0.0                           
5.999866314104381             2.7302136849745806e-17        0.0                           
6.249999999999999             -0.0001528591762315364        0.0                           
6.4998372586704605            3.483384857301337e-16         0.0                           
6.75                          8.868442446396018e-05         0.0                           
7.000086604069754             6.0733491080724e-06           0.0                           
7.25000660097809              8.184799625858506e-05         0.0                           
7.500079135268772             7.74108647677171e-06          0.0                           
7.7500083478122015            7.296217242506057e-05         0.0                           
8.000069477270609             9.617815012458985e-06         0.0                           
8.250010273819461             6.166816647328983e-05         0.0                           
8.500057334693862             1.1609253043972266e-05        0.0                           
8.750012281376813             4.780609468878311e-05         0.0                           
9.000042616948024             1.3617126216710745e-05        0.0                           
9.250014274339179             3.142159023945082e-05         0.0                           
9.500025434965313             1.5552581621485538e-05        0.0                           
9.75001616775984              1.2742070848515913e-05        0.0                           
10.000006040122635            1.7338248724003628e-05        0.0                           
1.8001005196378605e-05        0.29999188902653523           0.0                           
0.2499844662031294            0.30001917304835596           0.0                           
0.5000196879367382            0.2999690915471021            0.0                           
0.7499611830516721            0.3000206882617043            0.0                           
1.0000211752132484            0.29994496756780215           0.0                           
1.249936672689783             0.3000221308929719            0.0                           
1.500022604570516             0.299919726969971             0.0                           
1.7499110776492683            0.30002355849136253           0.0                           
2.0000240453148113            0.2998934132514063            0.0                           
2.2498843859903483            0.3000250558058868            0.0                           
2.500025586294919             0.299865893088695             0.0                           
2.749856401295486             0.30002671391985225           0.0                           
3.000027316886816             0.29983684621923024           0.0                           
3.2498267453970566            0.30002861388769064           0.0                           
3.5000111345258507            0.3000857499219957            0.0                           
3.750083486776377             0.3000131851071815            0.0                           
4.0000143008705304            0.3000783038221715            0.0                           
4.250075349865404             0.30001668633572404           0.0                           
4.5000179429540985            0.30006864848650816           0.0                           
4.750064881122041             0.30002054800454764           0.0                           
5.00002188149004              0.3000564827655416            0.0                           
5.250051847476097             0.3000245733996017            0.0                           
5.500025917716893             0.30004171249031125           0.0                           
5.750036222620633             0.3000285708411168            0.0                           
6.000029868445308             0.3000244352340576            0.0                           
6.250018154109519             0.30003238519613473           0.0                           
6.500033603734774             0.3000048393301653            0.0                           
6.749997844584478             0.30003602582633804           0.0                           
7.000037199560115             0.2999832441819308            0.0                           
7.249975654911016             0.30003936919368623           0.0                           
7.500040390436302             0.2999599800405297            0.0                           
7.749951926483551             0.30004236131449125           0.0                           
8.000043321202165             0.29993543626114383           0.0                           
8.249927011368843             0.3000452162882241            0.0                           
8.500046163454089             0.2999098142572409            0.0                           
8.749901039873324             0.30004808983800185           0.0                           
9.000049082867553             0.2998831156591374            0.0                           
9.24987394887843              0.3000511633460098            0.0                           
9.500052264222033             0.29985514551807446           0.0                           
9.749845477991993             0.3000546180365923            0.0                           
10.000055881674513            0.29982551911347494           0.0                           
8.637797969858166e-05         0.6000166522316634            0.0                           
0.250018145397508             0.6000820775424367            0.0                           
0.5000796145733899            0.6000214139400363            0.0                           
0.7500231740085803            0.6000739694311861            0.0                           
1.0000707565108127            0.6000268980703948            0.0                           
1.2500288406018512            0.6000634921732796            0.0                           
1.5000594256327475            0.600032830353117             0.0                           
1.7500348549883216            0.6000504060034563            0.0                           
2.0000454534471888            0.6000389096933814            0.0                           
2.2500409199032023            0.6000346811743498            0.0                           
2.5000288742856416            0.6000448634704256            0.0                           
2.75004678413818              0.6000164591414612            0.0                           
3.000009868984059             0.6000505124406101            0.0                           
3.2500523232906526            0.5999959991647855            0.0                           
3.4999887559607052            0.6000558155739576            0.0                           
3.7500574733909584            0.5999737086238306            0.0                           
3.9999659265109986            0.6000606093553988            0.0                           
4.2500621065812325            0.5999499135327268            0.0                           
4.499941707000683             0.6000650069026653            0.0                           
4.750066427198237             0.5999249350643949            0.0                           
4.9999163785120375            0.6000692539243233            0.0                           
5.250070680211345             0.5998989273459859            0.0                           
5.499890026214613             0.6000736109547778            0.0                           
5.750075136751699             0.5998718369210307            0.0                           
5.999862526637618             0.6000783613679627            0.0                           
6.250080079754561             0.5998434011929693            0.0                           
[...]
POINT_DATA  4141
SCALARS Con float 1
LOOKUP_TABLE default
0.0009970084802393316
0.0010954757474482167
0.001290910180815256
0.0015206425681307994
0.0017816873407994578
0.0020750274431182527
0.0024014458841397413
0.00276118810138125
0.00315391022065551
0.003578669177377945
0.004033936211636502
0.004517630571674088
0.0050271692490188365
0.005559525596969618
0.006111285473203983
0.0066786803272119435
0.007257596146176737
0.007843516182817447
0.008432997193187356
0.009032922526733881
0.009718481559970574
0.01041203686470511
0.011035480196400613
0.011628327661849866
0.01222580477629062
0.012825889501715626
0.013429245158387556
0.014037110854709803
0.014651763639413585
0.015276307705925758
0.015914564605136603
0.01657097595343631
0.017250520250311173
0.017958634366178894
0.018701135416249882
0.019484139685153036
0.0203139701479316
0.021196946288042723
0.022137524761018497
0.02311133393175287
0.023671001022283325
0.0010169438087859256
0.0011178978058345283
0.0013174634422518379
0.0015516788453885438
0.0018175686020678729
0.002116035428416468
0.0024477804529087935
0.002812961829422677
0.003211147422722277
0.0036413091059669836
0.004101841437736548
0.004590602469061697
0.005104974836266901
0.005641945636044533
0.00619820651398191
0.006770295102941294
0.007354826230082783
0.00794931861333378
0.008553423399911154
0.009185515464816144
0.009830450231541506
0.010466985108046495
0.011087890496651464
0.01170334265624002
0.012309472737557529
0.0129140206213651
0.013519468475436813
0.014128402988753806
0.014743731157886972
0.015368935893237014
0.016008090242697063
0.016665826427763604
0.01734728130875349
0.018058031686301615
0.018804022786213306
0.019591490181429316
0.0204268678848445
0.0213165795435368
0.022265134639942688
0.023248502227026936
0.02381431327600967
0.0010071954416824402
0.0011079979181394177
0.0013078082394050563
0.0015428309423176124
0.0018100330359606825
0.0021103001765589735
0.002444303979447045
0.0028121692973145374
0.0032134296670187036
0.003647026030921167
0.004111332130647397
0.004604206849843656
0.0051230763059582855
0.0056650531622514455
0.006227114061719704
0.006806377756078185
0.0074006428457473235
0.008008989062882076
0.00863473995921962
0.00925912196413587
0.00985745781429617
0.010459645623666839
0.01108694685074116
0.011710347834102805
0.012325919857756619
0.012935181249059914
0.013542149037932948
0.014150239288625016
0.014763006885069907
0.015384342777574209
0.016018601332700232
0.016670629156153863
0.017345748741932104
0.01804971605399388
0.01878866254880545
0.019569025422643764
0.020397460249234844
0.021280628128615264
0.022223293834353997
0.023201386829415558
0.02376418529682583
0.0009901707870718453
0.0010909618956735714
0.0012912458484330399
0.0015275822092010727
0.0017969420490813902
0.0021001710910599596
0.0024378905151774687
0.0028101661464476806
0.0032164682503790145
0.0036556746620617906
0.004126101904475897
0.0046255653159666225
0.005151471265858147
0.005700946545420227
0.0062710090664869385
0.006858781675234305
0.007461596761880216
0.008076957375441398
0.008697045604320962
0.009311869118448826
0.009920847991001305
0.010528145012616192
0.011139378571300916
0.011756223784233768
0.012369871516361826
0.012978468917556737
0.013583411032570158
0.014187654177139098
0.014794745299825414
0.015408745155243937
0.016034217075085466
0.016676229936236353
0.017340340801608994
0.01803255931694305
0.01875929689689804
0.019527302383949705
0.020343576731319566
0.021215157264773903
0.022147201008237024
0.02311622385984239
0.02367460808796592
0.0009661245959546217
0.0010668973572913456
0.0012678914646566787
0.0015061177358354312
0.0017785438193003726
0.002085960095101949
0.0024289125798336027
0.00280737868252642
0.003220730168426583
0.003667738759897103
0.004146608616229056
0.0046550354590868875
0.005190291571801714
0.005749331156840809
0.006328898805878307
0.006925574852424513
0.007535665425017224
0.008154207805119407
0.008775388159490518
0.009394336410925257
0.010008596014841942
0.010619827002332818
0.011230349150685747
0.011839760102096811
0.01244682835926141
0.013049510751780482
0.013648106670987816
0.014244632706041732
0.014842269851652377
0.01544500237255813
0.016057483418299545
0.01668496640502908
0.017333258565209123
0.018008674808421457
0.018717984868129773
0.019468349630495874
0.020267236188653347
0.02112220249636638
0.02203899838954947
0.0229950905131909
0.02354725373567147
0.0009348660957050557
0.001035649250861383
0.001237617341725016
0.001478341328478627
0.001754776721146763
0.002067637243423117
0.002417367751209764
0.002803825794135792
0.003226246542341903
0.0036832481799156137
0.004172861489963382
0.0046925817253117615
0.005239438448850895
0.005810072503396352
0.006400794898005837
0.0070075924843470494
0.007625985592928382
0.00825110613337654
0.008878081532275907
0.009502864259298041
0.01012323697579069
0.01073857394252765
0.011349031419752588
0.011954651531905815
0.01255476290300713
0.013149021703491791
0.013737825355487007
0.014322891181142041
0.014907117138769984
0.015494383007297611
0.01608939034032108
0.016697562164643798
0.017324971968814214
0.017978284782925073
0.018664699294269137
0.01939188372696583
0.02016789337672252
0.021000962029019035
0.02189764222800748
0.02283661235692399
0.023380422030562942
0.0008962239879546363
0.0009970589297308675
0.001200298514402428
0.0014441649693732342
0.0017255901719069081
0.002045188675160667
0.0024032776505904614
0.002799563973055005
0.0032331094433253734
0.003702333739154291
0.004205038776272974
0.004738452126070946
0.005299284998091812
0.005883795624936809
0.006487846141659355
0.007106939811478755
0.007736303041556709
0.008371063078033411
0.009006620827121012
0.009639144563768586
0.010265887436269732
0.010885228748891564
0.011496324383521331
0.01209867733364245
0.012692053212531654
0.013276560462594436
0.013853056523140003
0.014423352152427332
0.014990323777026148
0.015557855805039924
0.016130746869339085
0.016714620896474297
0.01731585419649937
0.01794151312995756
0.018599295640201817
0.019297469862148673
0.020044797499220963
0.020850336154204858
0.02172160962070582
0.02263877007948988
0.02317185017810754
0.000850076607821208
0.0009510154118463658
0.001155849047345064
0.00140353441124208
0.0016909637936410656
0.002018629081959568
0.0023866947191046885
0.002794689440702186
0.0032414699443834506
0.003725219564781554
0.0042434665370701796
0.004793120699293729
0.005370526504626569
0.005971529016851855
0.006591550769152993
0.007225692468329088
0.007868877255781996
0.008516072960762875
0.009162584010672378
0.009804349846349812
0.010438162330920023
0.01106170654095718
0.011673459683018268
0.012272552059542464
0.012858681651391823
0.013432186848500295
0.013994169616301998
0.014546650247718404
0.015092641470457193
0.015636160789694972
0.016182189609272535
0.01673661516586202
0.017306171685287527
0.017898385947583167
0.018521525753596096
0.019184546779732976
0.01989702614715887
0.020668977026584996
0.02150905723135645
0.022399200032780793
0.022918873422886742
0.000796408305071901
0.0008975027279156613
0.001104260555822159
0.0013564560780699295
0.0016509224982240974
0.0019880054620183747
0.0023676950205131875
0.002789320263121027
0.00325150886966821
0.003752179256442855
0.0042885517880078975
0.004857180162607045
0.005454004147201691
0.006074424704926289
0.006713405279790562
0.007365605856331754
0.00802555998834566
0.008687895147313976
0.009347579663220393
0.0100001573603554
0.01064192005075626
0.011269992482675809
0.011882337036507835
0.012477720728691364
0.013055702024919597
0.013616654449843647
0.01416183497220713
0.014693453941551221
0.015214728441319257
0.01572989750076899
0.0162442074960096
0.01676387844184093
0.017296064051435543
0.017848812162181225
0.018431026936044807
0.019052430208352615
0.01972351076828534
0.020455357600866413
0.02125792279143662
0.022115246763590793
0.0226184836071709
0.0007353744853251473
0.0008366576852197875
0.0010456452867119886
0.001303024824595597
0.0016055483770443827
0.001953393204844553
0.002346359019503655
0.002783562439367602
0.0032633883574538784
0.0037834718819312082
0.004340699991303795
0.004931236805442431
0.005550576614915134
0.006193628375450358
0.006854835017424462
0.007528330440308057
0.008208133315463655
0.008888369794544613
0.009563506363663314
0.010228565873836689
0.010879300657574923
0.011512307608055133
0.012125089168822266
0.01271608024195898
0.013284663663064399
0.013831193379388483
0.01435702561426627
0.014864552840973008
0.01535722716172836
0.015839567795274578
0.016317151814610967
0.01679659454295716
0.017285526043097004
0.017792569073178888
0.018327320069011388
0.01890033114942701
0.019523082407656083
0.020207842899086535
0.020966007045170407
0.021784062703230606
0.02226743686004357
0.0006673776333076089
0.0007688357279896722
0.0009802832606759994
0.0012434509517923623
0.001554987211749495
0.0019148823845074638
0.002322738755897132
0.002777459690700562
0.0032771864265205702
0.003819263760869705
0.004400227174041854
0.005015818452141533
0.005661036640364042
0.006330229395852575
0.007017227310547736
0.007715520205274621
0.008418469379565514
0.009119543386169519
0.009812558957197034
0.010491905677032237
0.011152735421113948
0.011791105541031716
0.012404075458763337
0.012989765208380093
0.013547389132864403
0.014077275559412428
0.014580879631844573
0.015060789955673837
0.015520728811255366
0.015965544922545368
0.016401200984726878
0.016834759775447586
0.01727437358469614
0.01772928025503809
0.01820980687054521
0.018727378809579597
0.01929452335634184
0.019924769438683158
0.020631080423613283
0.021402738022241272
0.021862396354894027
0.0005931527953794488
0.0006946835670365088
0.0009086711814716767
0.001178083943478973
0.0014994467835878589
0.0018725514597453937
0.002296808896917938
0.0027709250529439184
0.0032928135046839603
0.0038595355986730654
0.004467265004628219
0.005111287443705752
0.005786045353522607
0.0064852339675705575
0.007201950694020537
0.007928894153874206
0.008658603052654638
0.009383719273528789
0.010097255401353398
0.010792845941535107
0.011464964425009199
0.012109094962522373
0.012721854674057686
0.013301070743041854
0.01384582016249808
0.014356442053931343
0.014834531303365294
0.015282920544316307
0.015705656053018786
0.016107972363259622
0.01649627045350127
0.016878104471882014
0.01726218115978262
0.017658374628310367
0.018077756732205373
0.01853264007883248
0.019036622511074772
0.01960453822362171
0.020251013551054978
0.020968466790863817
0.02140011716646133
0.0005138586278247391
0.0006152147456668665
0.0008315693278688526
0.001107429146751245
0.0014391833741651966
0.0018264249069894652
0.0022683983954082344
0.002763651143518969
0.003309907684188674
0.0039039709759743513
0.004541652530600973
0.005217747074156848
0.005926065354458699
0.006659533623018612
0.007410361521988381
0.008170272336971979
0.008930781996168763
0.009683506896987359
0.010420476917152036
0.011134429847994872
0.011819066830335732
0.01246925491149976
0.013081170486719185
0.013652384994798608
0.014181899974338068
0.014670142155342254
0.01511893070968142
0.015531428421748395
0.015912087854016523
0.016266601966293287
0.016601867610843483
0.016925968582537424
0.01724818328451871
0.01757901964367542
0.017930277073698996
0.018315131694694245
0.018748232917780522
0.01924572024107787
0.01982393225302645
0.02047874977293711
0.020877674648462272
0.0004311668704320897
0.0005318812548350924
0.000750040492113623
0.0010321524530348119
0.0013744724124013224
0.001776411568916682
0.0022370998743294875
0.0027549960573924523
0.003327705120590616
0.003951821673452169
0.004622808710188841
0.0053349342026515895
0.006081284822897199
0.006853868437053316
0.007643807353234493
0.008441613616761406
0.009237527613140542
0.0100218934173768
0.010785540160339684
0.011520138865074334
0.012218508826274335
0.012874855393922508
0.013484930599756702
0.014046117452208021
0.014557446637022518
0.015019559769988285
0.015434636268418378
0.015806301459699114
0.016139532500872265
0.0164405766081185
0.016716893367341206
0.01697713027764234
0.017231137586773908
0.01749002567312655
0.017766264874286442
0.018073823458465532
0.018428329891655684
0.018847172719544517
0.019348394673434494
0.01993163268197523
0.020292736670693177
0.0003473371208825718
0.00044662991367241006
0.0006654723177509674
0.0009530670898912671
0.0013055602437665188
0.0017222224377593678
0.0022021560883440433
0.002743843961141532
0.0033448838993169866
0.004001747578091008
0.004709583342989151
0.005462096545412646
0.006251534517796273
0.007068792494409392
0.00790364315213091
0.00874507756525903
0.009581731384427793
0.010402359267987351
0.011196315084787406
0.011953996176106221
0.012667216549051868
0.013329484993017898
0.013936177405891282
0.01448460572584391
0.014973996759861165
0.01540540188400688
0.01578156231721016
0.016106755422241697
0.016386645227884106
0.016628157031389652
0.01683939131661416
0.017029588230768625
0.017209149475557982
0.017389721406729716
0.017584339863053154
0.01780763334455587
0.01807607079953475
0.01840816418411095
0.018823586903695688
0.019325975601524558
0.019643875122463718
0.00026525727609038756
0.000361926503616284
0.0005795714881687589
0.0008710980023167707
0.0012325975455495576
0.001663271643095758
0.0021623275688557584
0.0027284432236383696
0.0033593834677800127
0.004051632986478166
0.004800088730041605
0.005597858863300917
0.006436205556681764
0.007304655105564475
0.008191279782708692
0.009083134718208308
0.009966812289601994
0.010829060963351763
0.011657407415840785
0.012440722363915524
0.013169681064042047
0.013837086404541501
0.014438042565876497
0.014969986266093645
0.015432598144268748
0.01582762671222679
0.016158661623261406
0.01643089222365995
0.01665088305087203
0.01682639167563951
0.01696624731753695
0.01708030227319855
0.01717946291208321
0.017275803192165498
0.01738276139420925
0.017515419881023377
0.017690859923923975
0.017928512999643667
0.01824952996337676
0.018661743588136742
0.0189309117430445
0.00018841738565021125
0.0002807230628853533
0.0004943186248092229
0.0007872225872161194
0.001155565095126273
0.0015985728906313555
0.002115749767866614
0.002706230510090664
0.0033682086330014253
0.004098388274861261
0.004891521123467877
0.00574008850381438
0.006634181878565859
0.007561616865558024
0.008508289933213085
0.00945875517865734
0.01039696718938645
0.011307111261409064
0.012174430123217585
0.01298595938589785
0.013731101506226404
0.014401995588596351
0.01499367175069082
0.015504007580041433
0.015933525989881396
0.01628508606521299
0.01656352168513675
0.01677527859236818
0.0169280914904119
0.017030732139861234
0.017092848306605207
0.017124904548007254
0.01713822881122426
0.01714516471972263
0.017159328208599396
0.017195968374274798
0.01727243951879404
0.017408739731296682
0.01762731049420759
0.017940300612988402
0.018155254842692592
0.00012079056813099978
0.0002063403132293896
0.000411867326897587
0.0007024162033455349
0.001074218127006505
0.001526636831611351
0.0020597919896907933
0.0026736605689828947
0.0033672398671990263
0.004137757459104642
0.004979990286232275
0.005885777943787248
0.0068438074016959095
0.007839726201105854
0.008856604137895166
0.009875714473711055
0.01087755589802155
0.011842995638563942
0.012754394400220288
0.013596580215967624
0.014357568311760844
0.015028971266694677
0.015606094005532766
0.016087752871108207
0.01647588783934506
0.016775050912495114
0.016991852210710846
0.017134433824846144
0.01721202406325812
0.017234606464406145
0.017212721706683132
0.01715740815621349
0.017080278719128705
0.016993727663520922
0.01691126029869496
0.01684794217732736
0.016820966605720633
0.01685036296361163
0.016959294961815845
0.01716471169222682
0.017320323222856118
6.943028928551228e-05
0.00014222705112686395
0.0003344902402571801
0.00061764627540993
0.0009879972439984042
0.0014453681784830435
0.0019909544361068235
0.0026260897624041206
0.003351098067590729
0.004164172768776595
0.005060390663604532
0.006030973170154249
0.007062917275703203
0.008139091538319983
0.009238841175818137
0.010339069037092764
0.011415675981878363
0.01244517431542804
0.013406254397733018
0.01428109622905298
0.015056273610686953
0.015723179153707592
0.01627798392926112
0.016721213172401543
0.01705706063294092
0.017292574261428592
0.017436834101883167
0.017500215880418054
0.017493802330429666
0.01742897460710013
0.017317192991585812
0.01716996081001024
0.01699895786444766
0.01681632732928048
0.01663510270611979
0.016469763336642025
0.016336917050170076
0.01625604441808719
0.016250164297315347
0.016339935704403
0.016431334187636527
3.320678959579415e-05
9.18803290723427e-05
0.00026450386310450017
0.0005336807407842072
0.0008960296997925782
0.001352261058760007
0.001905161833635452
0.0025581097727392843
0.003313480273625418
0.004171086269658187
0.005126750519782317
0.006171184743215045
0.007289363339731765
0.00846056091356091
0.009659147003982196
0.010856109988068205
0.012021135676918076
0.013124943227153104
0.014141517352424422
0.01504990267081831
0.015835328294322024
0.016489579813327892
0.017010678832218618
0.017402036859711163
0.017671297682626343
0.01782908129334458
0.017887801757839123
0.01786067770427478
0.017760997724160496
0.017601658753587938
0.01739496462351779
0.017152656519239116
0.016886142780313567
0.016606899919321468
0.016327025296863144
0.0160599327263179
0.015821180820251746
0.015629454389769672
0.015507041517118209
0.01547758116072036
0.015500112865621906
0.0008209767332762368
0.0012741660586239967
0.0025044806910369784
0.005223127997902336
0.006351843488856909
0.00884729548558941
0.010156294856680525
0.012716872868922724
0.013894392850321393
0.015891013858903156
0.016671311755042325
0.017294837608811047
0.017763061700782453
0.018083819925739632
0.018269508980497333
0.018335285371723624
0.01673381440631183
0.016366117069841236
0.01500951333868968
0.014780381556386106
0.01459700430856251
1.459641206978977e-05
6.294078591207198e-05
0.00021531033622476558
0.00046867489842012956
0.0018332997500920814
0.003292776768341924
0.004200083596742771
0.007568418224242381
0.011458819804587937
0.014960339079552971
0.01829749270826056
0.018172443823337138
0.017975600394073903
0.017721132524904096
0.017421808287452746
0.01708915181533247
0.015996741919294354
0.015637569300813774
0.01530268127433802
0.014640273307502543
1.1389380153412503e-05
4.7386928237745616e-05
0.0001785717028821139
0.0004137054399574207
0.0007504835801494434
0.0011917719023183575
0.001744213151609036
0.002416068418543314
0.003214741002390378
0.0041442519844896285
0.0052027801932003764
0.00638057308463683
0.007658613248242885
0.009008437790362643
0.010393379397423361
0.01177123286373901
0.013098009586782547
0.014332138513471922
0.015438333344548682
0.016390434308359524
0.017172817740035557
0.017780327650913974
0.018216995298634533
0.018493989862049677
0.01862727545824863
0.01863537079077817
0.018537476424883008
0.018352097388355002
0.01809617955950312
0.01778470766060907
0.017430679806855785
0.017045370055699303
0.016638804095464026
0.016220396440117114
0.01579972384322056
0.015387431099130577
0.014996298371570118
0.014642462014100417
0.014346895522124703
0.014135396236853911
0.014051280418901267
1.5848685537187948e-05
3.960948424551371e-05
0.00015101482536284127
0.00036864779032264326
0.0006903958614728112
0.0011199413675637814
0.0016657164013265174
0.0023383298361588432
0.003147769478690184
0.004100432622811153
0.005196157467211183
0.006425589890716464
0.007768387359994744
0.00919280391600324
0.01065706282948525
0.012112580716284616
0.013508633615257764
0.014797617649337822
0.015939848716968158
0.016906973334190365
0.017683474821199387
0.018266272632183216
0.018662832676897032
0.018888418566504854
0.018963115843714823
0.018909119839112986
0.018748581161098683
0.018502117887054553
0.018187968788016234
0.017821685920110804
0.017416238882019066
0.01698241142322864
0.01652939795962394
0.016065540811075286
0.015599180378981548
0.015139624462041475
0.014698233101417041
0.014289759195790544
0.013933352031248625
0.013658275914269926
0.013539460879498855
2.5730303734006593e-05
3.716460832893694e-05
0.00012798062181872553
0.00032670458133169863
0.0006316576745511675
0.0010474271757220815