# vtk DataFile Version 2.0
time_10.vtk
ASCII
DATASET UNSTRUCTURED_GRID
POINTS   4141  float 
7.693154321353572e-06         -2.2676260552112347e-16       0.0                           
0.25                          7.270721460855318e-06         0.0                           
0.5000070367781598            2.6886329740484267e-17        0.0                           
0.7499999999999997            6.516027753271726e-06         0.0                           
1.0000062267575094            -1.9231578215363717e-17       0.0                           
1.2500000000000004            5.58575185613294e-06          0.0                           
1.5000052327855442            -1.3269696449132775e-17       0.0                           
1.75                          4.460495237806416e-06         0.0                           
2.0000040412517444            -4.955478327098394e-16        0.0                           
2.25                          3.138349608688657e-06         0.0                           
2.500002656027555             5.328269204209702e-16         0.0                           
2.75                          1.6348110239246915e-06        0.0                           
3.000001099304588             -3.13417266956129e-16         0.0                           
3.25                          -2.5570386995858646e-17       0.0                           
3.499999385485986             -4.236010262401377e-17        0.0                           
3.7500000000000004            -1.8556784063155347e-06       0.0                           
3.9999975107039787            -1.095427310419874e-16        0.0                           
4.25                          -3.7844494406107996e-06       0.0                           
4.499995554897494             1.3176275112687725e-17        0.0                           
4.75                          -5.790403369982152e-06        0.0                           
4.999993525465825             -8.927832140386407e-18        0.0                           
5.25                          -7.865707042101338e-06        0.0                           
5.499991426707151             1.1265236258177487e-18        0.0                           
5.750000000000005             -1.0015322406309368e-05       0.0                           
5.999989248486306             4.1412658929074075e-17        0.0                           
6.25                          -1.2260062022350087e-05       0.0                           
6.499986964729416             -2.9899648357093115e-15       0.0                           
6.75                          7.672396765794976e-06         0.0                           
7.000007468500384             5.889176364405669e-07         0.0                           
7.250000627547057             7.01678102915253e-06          0.0                           
7.500006765821538             7.120054785814675e-07         0.0                           
7.75000075735305              6.2070567654473766e-06        0.0                           
8.000005897163081             8.528702955687528e-07         0.0                           
8.250000902423835             5.212716417234076e-06         0.0                           
8.500004837366655             1.003539608954066e-06         0.0                           
8.750001054478417             4.020061137532759e-06         0.0                           
9.000003578596557             1.1556403965049398e-06        0.0                           
9.250001205318924             2.6327447700584506e-06        0.0                           
9.500002129974872             1.30163077705482e-06          0.0                           
9.75000134779344              1.069624841153058e-06         0.0                           
10.000000512830061            1.4351159365747237e-06        0.0                           
1.4832294558825923e-06        0.2999993450129526            0.0                           
0.2499987362667458            0.3000015682674867            0.0                           
0.500001605664966             0.2999974811550562            0.0                           
0.7499968380903953            0.3000016775278388            0.0                           
1.0000017121407214            0.29999552484347625           0.0                           
1.2499948557925977            0.3000017794684543            0.0                           
1.5000018126089598            0.29999349463387026           0.0                           
1.7499928027513643            0.3000018791143486            0.0                           
2.0000019130432185            0.2999913955345287            0.0                           
2.2499906792627757            0.3000019837366463            0.0                           
2.500002021101475             0.29998921752004126           0.0                           
2.7499884699029216            0.3000021013178595            0.0                           
3.0000021447039535            0.2999869344377089            0.0                           
3.2499861434149118            0.30000223917496743           0.0                           
3.5000011042256998            0.3000074070559293            0.0                           
3.750007189842887             0.3000012536574129            0.0                           
4.000001336039909             0.30000670630665094           0.0                           
4.250006437087899             0.3000015138837846            0.0                           
4.500001608245117             0.30000583792905516           0.0                           
4.750005506291885             0.3000018048044603            0.0                           
5.000001905731437             0.30000477632207423           0.0                           
5.250004377622457             0.3000021097227645            0.0                           
5.500002211579471             0.30000351345888715           0.0                           
5.750003048835238             0.3000024122508256            0.0                           
6.000002510101712             0.3000020577209573            0.0                           
6.250001532719644             0.30000269900166254           0.0                           
6.500002789840145             0.3000004265120565            0.0                           
6.749999848409358             0.30000296820974687           0.0                           
7.000003053768047             0.2999986476232114            0.0                           
7.24999802659614              0.30000321113625694           0.0                           
7.500003284634273             0.29999674986385494           0.0                           
7.749996096690009             0.30000342508820854           0.0                           
8.00000349285402              0.29999476484852516           0.0                           
8.249994087223977             0.3000036256598765            0.0                           
8.500003691708503             0.2999927097756683            0.0                           
8.749992009850308             0.3000038258860087            0.0                           
9.000003895201708             0.29999058580268995           0.0                           
9.249989860333292             0.3000040413163831            0.0                           
9.50000411930747              0.29998837758415126           0.0                           
9.749987617748287             0.3000042879482033            0.0                           
10.000004379584727            0.29998605346336826           0.0                           
7.506131691898707e-06         0.6000016521627008            0.0                           
0.25000176043801275           0.6000070886556289            0.0                           
0.5000068566897353            0.6000020008856533            0.0                           
0.7500021317827725            0.6000063383690374            0.0                           
1.0000060494068042            0.6000024109238267            0.0                           
1.2500025573545661            0.6000054069744901            0.0                           
1.500005052223277             0.6000028591510872            0.0                           
1.7500030125882597            0.6000042741581247            0.0                           
2.000003850904241             0.6000033199023831            0.0                           
2.2500034720680944            0.6000029375770153            0.0                           
2.500002448642164             0.6000037697107108            0.0                           
2.7500039140412533            0.6000014098741256            0.0                           
3.0000008617135987            0.6000041923686132            0.0                           
3.2500043263911396            0.5999997141184115            0.0                           
3.4999991176128207            0.6000045824777795            0.0                           
3.750004703010364             0.5999978842247535            0.0                           
3.99999724933299              0.6000049290954603            0.0                           
4.25000503602682              0.5999959487901925            0.0                           
4.499995285124689             0.6000052412456921            0.0                           
4.750005340918337             0.599993934460665             0.0                           
4.999993248240196             0.6000055381906525            0.0                           
5.250005637460291             0.5999918544225787            0.0                           
5.499991146346633             0.6000058417208395            0.0                           
5.750005948553539             0.5999897050266648            0.0                           
5.999988969996086             0.6000061762030642            0.0                           
6.250006298772045             0.5999874651602207            0.0                           
[...]
POINT_DATA  4141
SCALARS Con float 1
LOOKUP_TABLE default
9.748139457693356e-06
1.0438455349565873e-05
1.1803730761576112e-05
1.3394969795379467e-05
1.5187866920493676e-05
1.7186683017135578e-05
1.9394584758235375e-05
2.1811274409378712e-05
2.4432640424947885e-05
2.725069285195719e-05
3.025365534922466e-05
3.342619581844584e-05
3.674977514909122e-05
4.0203072865581334e-05
4.376242128332971e-05
4.740213155742933e-05
5.1094656029792836e-05
5.4810368494988536e-05
5.8524575250162145e-05
6.226989029148334e-05
6.645502256126777e-05
7.064654084957604e-05
7.442120177480457e-05
7.80087478719645e-05
8.158992733248907e-05
8.515420381695073e-05
8.870688010557566e-05
9.225778070529042e-05
9.582337496811391e-05
9.942556721649267e-05
0.00010309105800153429
0.00010685080472158717
0.00011073954787683183
0.00011479539148391931
0.00011905937628519297
0.000123575042966474
0.0001283878963293327
0.00013354399269767994
0.0001390772656777604
0.00014483816039796986
0.00014815583273305774
9.890846793212824e-06
1.059693797049133e-05
1.1989446786208377e-05
1.3609965643029994e-05
1.5434250756343775e-05
1.7466001316928393e-05
1.970782617325607e-05
2.215883853592125e-05
2.4814335218074297e-05
2.7665757285883385e-05
3.07008125337111e-05
3.3903748892234945e-05
3.725576641616571e-05
4.073555908473903e-05
4.431998647962891e-05
4.7984976175040426e-05
5.17069103005461e-05
5.546707396112857e-05
5.925888066555023e-05
6.317413658613107e-05
6.712795692098708e-05
7.101187419293549e-05
7.47803050659887e-05
7.848255455530849e-05
8.210405009224547e-05
8.568649306282971e-05
8.924517523516235e-05
9.27970994377678e-05
9.636212007715293e-05
9.99642104337208e-05
0.00010363147296606754
0.00010739594206807497
0.00011129326524323274
0.00011536235035007462
0.00011964497774579749
0.00012418537621767837
0.00012902969362845753
0.00013422459437299216
0.00013980438907234226
0.00014562201186318777
0.00014897621358698807
9.809489425872275e-06
1.0515420904400778e-05
1.1911087537477916e-05
1.3538846510041847e-05
1.5373887577098278e-05
1.7419690318010976e-05
1.9678565468740192e-05
2.2149307387884854e-05
2.4826887548617482e-05
2.7702440012756493e-05
3.076342145296733e-05
3.3993946135763334e-05
3.737531148781031e-05
4.0886746176340966e-05
4.450649200721397e-05
4.821342953396812e-05
5.199009071922757e-05
5.5826139511397156e-05
5.9734292065422805e-05
6.361237946766958e-05
6.732054966076898e-05
7.101654463193458e-05
7.481719132183133e-05
7.856231440633893e-05
8.223083476715349e-05
8.58340768089426e-05
8.939599895001287e-05
9.293821752900843e-05
9.648407766323573e-05
0.00010005973126021988
0.00010369478429880938
0.00010742240868647648
0.0001112792396895016
0.00011530513159116771
0.00011954285098820924
0.00012403770449404358
0.00012883703975510703
0.00013398886158950537
0.00013952915062349395
0.00014531162682942028
0.000148646864222703
9.668608969929492e-06
1.0375803633293558e-05
1.1777383139581931e-05
1.3417160939062916e-05
1.5270129403613338e-05
1.733932202234478e-05
1.9626550306121254e-05
2.2130057655086173e-05
2.484423944224298e-05
2.7759653422544794e-05
3.0863212236911665e-05
3.413856225451965e-05
3.7566662989485034e-05
4.112659231184546e-05
4.479659481151406e-05
4.8555381657456986e-05
5.238289886600529e-05
5.626040615919639e-05
6.0141732070384326e-05
6.396850093539621e-05
6.773524739110341e-05
7.146072052566784e-05
7.517178316374035e-05
7.887804210610087e-05
8.253219636805451e-05
8.612604321705271e-05
8.967013433560831e-05
9.318396134276084e-05
9.66910342563484e-05
0.00010021852742822547
0.00010379723048709735
0.0001074615473205057
0.0001112493908193234
0.00011520199412984046
0.00011936364719815897
0.00012378137163100632
0.00012850446717810243
0.0001335831705543774
0.00013905598164825326
0.0001447807759081016
0.00014808790883363165
9.469393053532767e-06
1.0178442998401844e-05
1.1588736603679832e-05
1.3245813099002192e-05
1.5124313094743199e-05
1.7226657159695924e-05
1.9553929121947542e-05
2.210356772211446e-05
2.4869104804029304e-05
2.7840193088845505e-05
3.100280674372249e-05
3.433962021597971e-05
3.783055351200081e-05
4.145345789781699e-05
4.5184849185675425e-05
4.900033970130688e-05
5.2874293489799143e-05
5.677478322821796e-05
6.066571733459243e-05
6.45169754810327e-05
6.831151478924565e-05
7.205563136260303e-05
7.576011460268705e-05
7.942157126869916e-05
8.303406539751685e-05
8.658839285628275e-05
9.008913129834661e-05
9.355105340555347e-05
9.69959790145794e-05
0.00010045087377740021
0.00010394714363178633
0.00010752026558746948
0.00011120954762864118
0.00011505789589538234
0.00011911156482488125
0.00012341986285839486
0.00012803473909904286
0.00013300948805583418
0.00013838623859762595
0.0001440285450270387
0.0001472949921340453
9.210015561717154e-06
9.921790988456585e-06
1.1343914320091337e-05
1.3023908010992798e-05
1.493590734486064e-05
1.708150972421717e-05
1.9460835784748986e-05
2.2070253133727924e-05
2.4902126827667583e-05
2.7944849385391844e-05
3.1183031220549e-05
3.459784532366765e-05
3.816750298584548e-05
4.1867800314331724e-05
4.56726073208681e-05
4.955410572039206e-05
5.348225112024845e-05
5.742533588260899e-05
6.135220743642271e-05
6.523667503029148e-05
6.906337217608032e-05
7.282644067953983e-05
7.65251856097344e-05
8.015932553259761e-05
8.37257178239326e-05
8.722438976738279e-05
9.066055287934782e-05
9.404754470245767e-05
9.740593505567673e-05
0.00010076236556079196
0.00010414868284333951
0.00010760139474152037
0.00011116131407170816
0.00011487327198644564
0.00011878587138001576
0.00012295121797772343
0.00012742455362831082
0.0001322630268665008
0.00013751337521971944
0.0001430465706314587
0.00014625898394445604
8.888608601737513e-06
9.604151958207695e-06
1.1041598590874194e-05
1.2750541768745146e-05
1.4704428055207953e-05
1.6903812450951307e-05
1.934761230714732e-05
2.2030859291600766e-05
2.4944454994535694e-05
2.8075188763774795e-05
3.14059083460531e-05
3.4915826338820165e-05
3.8580943295411644e-05
4.2374540761730185e-05
4.62676679872453e-05
5.022955368956315e-05
5.422823801528843e-05
5.823170113998697e-05
6.220998414068126e-05
6.613807224573287e-05
6.999775273882914e-05
7.377799697049273e-05
7.747304440395146e-05
8.108002104335452e-05
8.459857623314795e-05
8.803135521670376e-05
9.138623258539674e-05
9.467727081765057e-05
9.792517098911907e-05
0.00010115684860612232
0.00010440486997877427
0.0001077069619013151
0.00011110564329154567
0.0001146479409511899
0.00011838516317288169
0.000122372673878197
0.00012666960055139018
0.00013133768291841654
0.00013642923219208346
0.00014182442995312435
0.00014496808109268754
8.503474715190837e-06
9.224008070300423e-06
1.068063643391121e-05
1.242497667099005e-05
1.4429572004572348e-05
1.6693704627819486e-05
1.9214855834566887e-05
2.1986475623433287e-05
2.4997728962655482e-05
2.8233497129741197e-05
3.167451659896654e-05
3.5297662811527266e-05
3.9076357130339356e-05
4.298108646164515e-05
4.698001226109309e-05
5.103972165650064e-05
5.512620867674402e-05
5.920625789657403e-05
6.324921133874367e-05
6.722876182179676e-05
7.112431175464744e-05
7.492127613661753e-05
7.861053888332991e-05
8.218766194261555e-05
8.565238936368421e-05
8.900905401350522e-05
9.226720055000354e-05
9.544233648223533e-05
9.855619048317053e-05
0.00010163665813527448
0.00010471749607466546
0.0001078379859822983
0.00011104263574700169
0.00011438095613317268
0.00011790729433638951
0.00012168069035011988
0.00012576467836560487
0.0001302262676891215
0.0001351242491869711
0.0001403498712608228
0.00014340841770191855
8.053472502933858e-06
8.780346925560142e-06
1.026030545839853e-05
1.2046835927831846e-05
1.411133118709717e-05
1.645157122112162e-05
1.9063387629767094e-05
2.1938433855411686e-05
2.506391014320823e-05
2.842252659058829e-05
3.19926118712709e-05
3.5748373366530575e-05
3.966032009040457e-05
4.3695844496200774e-05
4.7819980780104474e-05
5.1996354391186544e-05
5.618836771901128e-05
6.0360612432084624e-05
6.44804182937905e-05
6.85193208902105e-05
7.24541450490301e-05
7.626754609276283e-05
7.994802652273384e-05
8.348970430495978e-05
8.68921656952525e-05
9.016051918267033e-05
9.330568431139187e-05
9.63446474764813e-05
9.930062318748218e-05
0.00010220300530769167
0.00010508719902583315
0.00010799440133255714
0.00011097141283735673
0.00011407050210542765
0.00011734934634663615
0.00012087100352982724
0.00012470385365545838
0.00012892075439536674
0.0001335878106192537
0.00013860924343870847
0.00014156447726693247
7.538472389491552e-06
8.273072542860941e-06
9.780626013160937e-06
1.1616309106171294e-05
1.3750094122351569e-05
1.6178039976436126e-05
1.8894147353052383e-05
2.188811228177652e-05
2.514499477927697e-05
2.864512354710632e-05
3.236415556422078e-05
3.627331096747426e-05
4.033981429252912e-05
4.452754865138563e-05
4.879794113816809e-05
5.3111069642648894e-05
5.7426978670139295e-05
6.170714618669269e-05
6.591598390037407e-05
7.002221038033391e-05
7.399992806063616e-05
7.782931045123448e-05
8.149690586706439e-05
8.499569785906697e-05
8.832506404591338e-05
9.149076109979946e-05
9.450494680984431e-05
9.738619682745796e-05
0.0001001594898418911
0.00010285609717065677
0.00010551344357309455
0.00010817496390644236
0.00011089000681655436
0.00011371382011155446
0.00011670761979520299
0.00011993872182986799
0.0001234806681249018
0.0001274126198519564
0.00013180870756419497
0.0001365880585702009
0.00013941970734811143
6.959910410389591e-06
7.703485001830361e-06
9.24271357609069e-06
1.1134365344462864e-05
1.3346716981644617e-05
1.587391173166699e-05
1.87080001741596e-05
2.1836631159791846e-05
2.5242621608033757e-05
2.8903766133073145e-05
3.279281147382912e-05
3.6877652892911135e-05
4.11217814775403e-05
4.548501221461902e-05
4.9924489980253126e-05
5.4395954919503155e-05
5.885521110590433e-05
6.32597114436632e-05
6.75701357663867e-05
7.175181775063093e-05
7.577590990902551e-05
7.962018671061683e-05
8.326951480354308e-05
8.671603273134117e-05
8.995914546026423e-05
9.300541770356472e-05
9.586842354123458e-05
9.856856313811137e-05
0.00010113287909975737
0.00010359485354297862
0.00010599424438867523
0.0001083769770625064
0.00011079513350836922
0.00011330706216748983
0.00011597760520324317
0.00011887843417371064
0.0001220884089076799
0.00012569326897117836
0.00012977572293119464
0.00013427172156800805
0.0001369573239468199
6.32142868842048e-06
7.074834920820824e-06
8.649160683818135e-06
1.0602955647420916e-05
1.2902543597168868e-05
1.5540013645149284e-05
1.850543453084263e-05
2.1784422853155252e-05
2.5357551322731295e-05
2.919999509818171e-05
3.3281379877598035e-05
3.7565900660868366e-05
4.2012764562083685e-05
4.6576993982418586e-05
5.121057465864711e-05
5.586391926248072e-05
6.048755186321672e-05
6.503390636019044e-05
6.945908436273556e-05
7.37244510797564e-05
7.77979237068338e-05
8.165490723582194e-05
8.527883453295547e-05
8.866138004990184e-05
9.18024010147162e-05
9.47097020428029e-05
9.739869647709177e-05
9.989203013059595e-05
0.0001022192098289825
0.00010441628749634133
0.00010652563768619974
0.00010859586430236427
0.00011068186891889221
0.00011284509128743708
0.00011515393239397651
0.00011768432957447353
0.00012052040410188193
0.00012375453436178652
0.0001274783358985178
0.00013164643041682086
0.00013416132611056443
5.629604498007914e-06
6.3929328960608645e-06
8.004433224906298e-06
1.0025181579545218e-05
1.2419353945599259e-05
1.5176934390145908e-05
1.8286115752578737e-05
2.173064755322351e-05
2.548899025507537e-05
2.9533710384900583e-05
3.3831130438570496e-05
3.834132153380075e-05
4.3018524859415634e-05
4.7812038340863595e-05
5.26675621432716e-05
5.752893009691347e-05
6.234011711661766e-05
6.704736068780492e-05
7.160122723081802e-05
7.595845651010933e-05
8.008343513497152e-05
8.394924327778834e-05
8.753822054546805e-05
9.084212194172993e-05
9.386191726798492e-05
9.66073515672788e-05
9.909636729763536e-05
0.0001013544779757743
0.00010341419819133197
0.00010531456795847181
0.00010710085916824359
0.00010882447774059085
0.00011054311201089614
0.00011232112992005837
0.00011423022252286879
0.00011635026756618714
0.00011877034110408653
0.0001215892396541022
0.00012490753958151196
0.00012870024497203738
0.00013101768443564557
4.894717944753236e-06
5.666778367496223e-06
7.315237281381587e-06
9.405393364135573e-06
1.1899194334189634e-05
1.4784617663416974e-05
1.80482724902993e-05
2.167241728561153e-05
2.5633719509638373e-05
2.9902283097664735e-05
3.44409879860319e-05
3.9205292138208516e-05
4.414360628497474e-05
4.919830095251927e-05
5.430731575640302e-05
5.940629202642958e-05
6.443104065672832e-05
6.932015289731961e-05
7.401751236005684e-05
7.847448566041239e-05
8.265164619936971e-05
8.651990151169017e-05
9.006103680395522e-05
9.326769712439327e-05
9.614294001180749e-05
9.86994777948134e-05
0.00010095876160223251
0.00010295005077278427
0.00010470956474153204
0.00010627983687868352
0.00010770930776874488
0.00010905223742872155
0.00011036893368769415
0.00011172633224273058
0.00011319889948157667
0.00011486985607502891
0.0001168326094640176
0.00011919183099429602
0.00012205677525738007
0.00012542433177877731
0.00012751576824029896
4.1315055542684076e-06
4.909145442250686e-06
6.5908091642542076e-06
8.749169096944679e-06
1.1344070332314842e-05
1.4361778002854344e-05
1.7787874493614398e-05
2.1603794207467126e-05
2.578499891204084e-05
3.0299463883713135e-05
3.5106551172655265e-05
4.015652645986068e-05
4.539086172313553e-05
5.074340111272356e-05
5.614237471794403e-05
6.151308992048141e-05
6.678109338057736e-05
7.1875480866931e-05
7.673203827791188e-05
8.129592383109633e-05
8.552367007645076e-05
8.938438763109127e-05
9.286016462650138e-05
9.594575751887154e-05
9.864771214951592e-05
0.00010098315308552408
0.00010297838627421464
0.0001046675608254761
0.00010609148669309481
0.00010729676400761764
0.0001083352702049545
0.00010926406902655997
0.00011014575147836116
0.00011104922426807442
0.00011205093312839476
0.0001132364918522032
0.00011470265715615569
0.00011655904585710981
0.00011892294874966624
0.00012181433834062029
0.00012364993073526662
3.3597567347399565e-06
4.137019527918655e-06
5.843037742423495e-06
8.063148964989482e-06
1.075548796173615e-05
1.3905164256373085e-05
1.7497638148341128e-05
2.151458227231647e-05
2.5931245119214026e-05
3.071407771208905e-05
3.58189480401222e-05
4.119022819854461e-05
4.6760989150836685e-05
5.2454415042881834e-05
5.818637459132481e-05
6.386896860117315e-05
6.941468088121047e-05
7.474070613788592e-05
7.977298634881557e-05
8.444953894673662e-05
8.872279297212145e-05
9.25607961836456e-05
9.594732212296817e-05
9.888103470951488e-05
0.00010137398043776944
0.00010344966161235336
0.0001051410245640598
0.00010648856798249613
0.00010753875027601071
0.00010834287613254206
0.00010895646818447264
0.00010943920362699556
0.00010985541050201943
0.00011027509930583834
0.00011077555543768281
0.00011144344142692458
0.00011237740673123463
0.00011369068267627066
0.00011550750952176253
0.00011787188070423107
0.00011942125987075501
2.604573147374489e-06
3.371704776074125e-06
5.086342524826397e-06
7.354667628329503e-06
1.0133876577735168e-05
1.3408693855458035e-05
1.716581948062183e-05
2.1388892847106056e-05
2.605448767287051e-05
3.112853434500966e-05
3.6563567112143625e-05
4.229720499682364e-05
4.8252184185830594e-05
5.433811075902974e-05
6.045487507123157e-05
6.649743070660406e-05
7.236141775286895e-05
7.794897025214701e-05
8.317400658992241e-05
8.79664290522773e-05
9.22748140662401e-05
9.60674899307186e-05
9.933207838784408e-05
0.00010207380869879934
0.00010431301905524473
0.00010608226429417414
0.00010742341500607885
0.00010838510367803075
0.00010902065081702179
0.00010938669311177866
0.00010954248207946444
0.00010954991160101446
0.0001094742192763782
0.00010938534997376507
0.00010935993922792062
0.00010948392588228037
0.00010985583040100574
0.00011059040842726878
0.00011181765241771147
0.00011360601931775194
0.0001148392353775543
1.8961185196489184e-06
2.638428673946468e-06
4.337134138596995e-06
6.631413996085785e-06
9.478077271607918e-06
1.2862462600745818e-05
1.677489864865935e-05
2.1203595572849244e-05
2.6128737501221122e-05
3.1517266022556614e-05
3.7318773549891545e-05
4.346308844046617e-05
4.9860035262810914e-05
5.640165220208456e-05
6.296682870746752e-05
6.942791478911932e-05
7.565853559298373e-05
8.154155865050632e-05
8.697618574266481e-05
9.188328209590909e-05
9.620841763988846e-05
9.992252209772728e-05
0.00010302041351122312
0.00010551774707159981
0.00010744703240424395
0.0001088533696451023
0.00010979042604080125
0.00011031703725814756
0.00011049466374227066
0.00011038577869817637
0.000110053201779632
0.00010956031491279579
0.00010897209447233627
0.00010835687797459762
0.00010778882922304128
0.00010735106886550631
0.00010713950077177118
0.00010726740960411712
0.00010786732091778429
0.0001090348134487036
0.0001099239824697228
1.2677565857118153e-06
1.9649685215328374e-06
3.613736755682394e-06
5.901404741860299e-06
8.784403328524319e-06
1.2251551086734458e-05
1.6300294929381298e-05
2.0926940782022187e-05
2.611852621733495e-05
3.184532219898217e-05
3.805479725821699e-05
4.466781084859048e-05
5.1577875308590594e-05
5.865398354213893e-05
6.57469935472016e-05
7.269900609150773e-05
7.935445047984436e-05
8.557130016814189e-05
9.123073841522632e-05
9.624396478339467e-05
0.0001005554383155654
0.00010414258038694092
0.0001070125287904615
0.00010919691065045145
0.00011074568239982786
0.00011172098268614408
0.0001121916941242467
0.00011222912835801168
0.00011190403009516728
0.00011128490219367474
0.00011043752478033613
0.00010942556385319787
0.0001083120729367183
0.00010716180930155286
0.00010604427621200007
0.00010503745738978981
0.00010423225230959208
0.00010373726775270893
0.0001036829045784106
0.0001041857326165119
0.00010470434226726926
7.587781171104736e-07
1.3824396066215856e-06
2.9362141382066665e-06
5.1713174552855994e-06
8.046093582732303e-06
1.1556657255519774e-05
1.5711456426100073e-05
2.0519695923471337e-05
2.597987802711939e-05
3.206920583271948e-05
3.873464998101279e-05
4.5886975964377376e-05
5.3399010637825474e-05
6.110917242892765e-05
6.883039348330435e-05
7.636365752267612e-05
8.351411346674716e-05
9.010724034336305e-05
9.600225167081507e-05
0.00010110078385330665
0.00010534994309661897
0.0001087400521576344
0.00011129833087402199
0.00011308026359533844
0.00011416027107092306
0.00011462309711476392
0.00011455667810957681
0.00011404698004014833
0.00011317474578463252
0.00011201405079516894
0.00011063233252202038
0.00010909162342660207
0.00010745076237489494
0.00010576840381031878
0.00010410673651604979
0.00010253595360596456
0.00010113942891499317
0.0001000197883590233
9.930201500241731e-05
9.912034663736389e-05
9.924300549782013e-05
7.440628367045479e-06
1.0979251610382951e-05
2.0228088579318092e-05
3.965106943315843e-05
4.741534244386498e-05
6.402932048602698e-05
7.244049119184415e-05
8.824083492473454e-05
9.517786759777367e-05
0.00010633053973685121
0.00011040355075821935
0.00011347455217893762
0.0001156011187035064
0.00011687117770694604
0.00011738987317896663
0.00011726825783118277
0.00010635924465460547
0.00010419592831570153
9.634558196916788e-05
9.502033523461641e-05
9.394679912209118e-05
4.194932722728101e-07
9.788625291241833e-07
2.4289912975809444e-06
4.59250839033076e-06
1.5232843714807591e-05
2.597878734315131e-05
3.247114946873042e-05
5.560882858496567e-05
8.059160696453217e-05
0.0001012416701658486
0.00011661476836657432
0.00011552961643152812
0.00011410188755112306
0.0001124087710248624
0.00011051655628156103
0.0001084827642267183
0.00010204527206364789
9.996736685436755e-05
9.803600895032745e-05
9.420279356155538e-05
2.5942953939247606e-07
7.37171692457493e-07
2.05909837511536e-06
4.116386262342186e-06
6.880478758480244e-06
1.0365692885081394e-05
1.4608408298208965e-05
1.9650102622606332e-05
2.5519105759283483e-05
3.221293498534501e-05
3.9682327787570304e-05
4.781951899980763e-05
5.645357712788908e-05
6.535531249428902e-05
7.425267456898472e-05
8.285517448742064e-05
9.088319760460342e-05
9.809644614026727e-05
0.0001043158907798986
0.00010943529204141716
0.00011342157933935828
0.0001163057521896058
0.0001181678528214922
0.00011911976768842221
0.00011928901505403727
0.00011880546371646121
0.00011779182979250014
0.00011635793533100915