# vtk DataFile Version 2.0
time_10.vtk
ASCII
DATASET UNSTRUCTURED_GRID
POINTS   4141  float 
8.517648634259156e-05         6.742894322314259e-17         0.0                           
0.2499999999999992            8.103141520933248e-05         0.0                           
0.5000786631399096            2.0572641435421176e-17        0.0                           
0.75                          7.325094310040763e-05         0.0                           
1.0000701791163824            4.49021831806423e-18          0.0                           
1.2500000000000002            6.325119679899512e-05         0.0                           
1.500059381268012             -1.302096988583805e-19        0.0                           
1.75                          5.0813660431559365e-05        0.0                           
2.00004611713483              4.767286613914856e-17         0.0                           
2.25                          3.5919898529213225e-05        0.0                           
2.5000304351808014            3.6659981523247555e-17        0.0                           
2.750000000000001             1.8757397087868395e-05        0.0                           
3.0000126089184165            -2.7668128934424234e-17       0.0                           
3.25                          -1.805955442486402e-18        0.0                           
3.4999927505401756            1.2229692731373172e-16        0.0                           
3.75                          -2.1855690313950506e-05       0.0                           
3.9999706736059206            -6.883835567117276e-17        0.0                           
4.25                          -4.465106343824094e-05        0.0                           
4.499947501762618             1.48132952271867e-16          0.0                           
4.75                          -6.854198720153645e-05        0.0                           
4.999923266080126             6.519996445997243e-17         0.0                           
5.25                          -9.346015273281833e-05        0.0                           
5.499897998263268             6.53023201870803e-17          0.0                           
5.75                          -0.00011947701995798312       0.0                           
5.999871568437673             2.596415532024949e-17         0.0                           
6.25                          -0.00014684247917362          0.0                           
6.499843668197714             1.458151857336198e-16         0.0                           
6.75                          8.489872082103012e-05         0.0                           
7.000082921877865             5.774694522477136e-06         0.0                           
7.2500062835488945            7.839404235911689e-05         0.0                           
7.5000758073950635            7.383004479487361e-06         0.0                           
7.750007968057101             6.99132587917174e-05          0.0                           
8.00006658214245              9.192626852330659e-06         0.0                           
8.250009825134486             5.911080286944545e-05         0.0                           
8.500054961662519             1.1112679371254702e-05        0.0                           
8.750011760667348             4.583282990843815e-05         0.0                           
9.00004085894463              1.3048345819660486e-05        0.0                           
9.250013681825433             3.0123880820676823e-05        0.0                           
9.500024381710551             1.4913609488894427e-05        0.0                           
9.750015506174714             1.2204556543824966e-05        0.0                           
10.00000577301003             1.663273244335463e-05         0.0                           
1.7274614107940746e-05        0.2999921852911896            0.0                           
0.2499850546081316            0.3000184058762176            0.0                           
0.5000189009502578            0.29997028344032495           0.0                           
0.7499626856497846            0.3000198627661794            0.0                           
1.0000203308596025            0.29994710803451885           0.0                           
1.249939139913854             0.3000212491836119            0.0                           
1.5000217041748032            0.299922862848066             0.0                           
1.7499145554389932            0.30002262020585724           0.0                           
2.0000230876219707            0.29989759063480975           0.0                           
2.2498889215200712            0.3000240578777346            0.0                           
2.500024567354463             0.2998711632990993            0.0                           
2.7498620489072794            0.30002565076143634           0.0                           
3.0000262303883756            0.29984327132063227           0.0                           
3.249833571732426             0.30002747792459505           0.0                           
3.50001057319061              0.30008209804345115           0.0                           
3.750079944908121             0.3000125508537933            0.0                           
4.000013626852624             0.30007500543686844           0.0                           
4.25007218621038              0.3000159271340838            0.0                           
4.500017138806103             0.3000657827976605            0.0                           
4.750062179405391             0.3000196505617228            0.0                           
5.000020936239372             0.30005414009191894           0.0                           
5.25004970003652              0.30002353152934036           0.0                           
5.500024827524402             0.3000399866838792            0.0                           
5.750034722867743             0.30002738505523563           0.0                           
6.000028635744239             0.3000234166884079            0.0                           
6.250017389998748             0.3000310610967886            0.0                           
6.500032235320601             0.3000046095629243            0.0                           
6.749997893947258             0.30003457197281297           0.0                           
7.000035704476902             0.2999838732877483            0.0                           
7.249976583799272             0.30003779425885824           0.0                           
7.500038776738751             0.29996152644785423           0.0                           
7.749953790015377             0.30004067185448396           0.0                           
8.000041594415054             0.2999379495872008            0.0                           
8.249929857079756             0.3000434150315145            0.0                           
8.500044324656166             0.299913339541084             0.0                           
8.749904912504403             0.3000461743157853            0.0                           
9.0000471277539               0.2998876990826892            0.0                           
9.249878896363079             0.3000491256258267            0.0                           
9.500050183138988             0.2998608405153893            0.0                           
9.749851557451752             0.3000524453705287            0.0                           
10.000053660547943            0.2998323918287258            0.0                           
8.26741625591773e-05          0.6000158120413766            0.0                           
0.2500172521551176            0.6000785856671437            0.0                           
0.5000762398321943            0.6000204042813254            0.0                           
0.7500221015210863            0.6000708547468507            0.0                           
1.0000677858871931            0.600025692405819             0.0                           
1.2500275653732014            0.6000608398667568            0.0                           
1.5000569481343606            0.6000314121008258            0.0                           
1.7500333640928167            0.600048310048957             0.0                           
2.0000435641928074            0.6000372731683927            0.0                           
2.2500392110806215            0.6000332364386928            0.0                           
2.5000276668464467            0.6000430125406023            0.0                           
2.750044863854915             0.6000157546046775            0.0                           
3.0000094292037915            0.6000484576667087            0.0                           
3.2500502035755114            0.5999961132600662            0.0                           
3.4999891582465223            0.6000535706503343            0.0                           
3.7500551680284184            0.5999747074456211            0.0                           
3.999967232840703             0.6000581868763909            0.0                           
4.250059627099001             0.5999518515620862            0.0                           
4.4999439686596014            0.6000624154117192            0.0                           
4.750063780163947             0.5999278585965574            0.0                           
4.999919640122875             0.6000664952433217            0.0                           
5.250067864802658             0.5999028795687754            0.0                           
5.499894331280011             0.6000706787111579            0.0                           
5.750072143793363             0.5998768641176567            0.0                           
5.999867923901549             0.6000752409892428            0.0                           
6.25007689218245              0.5998495590607166            0.0                           
[...]
POINT_DATA  4141
SCALARS Con float 1
LOOKUP_TABLE default
0.0008987960749925951
0.0009893470700520202
0.001168806963979334
0.0013799412955010101
0.0016200618953330238
0.0018901041941038752
0.002190815339126179
0.00252244396604244
0.0028846915431517232
0.003276702175605559
0.0036970739640134094
0.004143888999477261
0.004614758087628095
0.00510687345953087
0.005617058640731361
0.006141795906660451
0.00667722879049575
0.007219107991441766
0.007764156128714953
0.008319311226290326
0.008957341114349485
0.009602551493529865
0.010179378075276843
0.01072748797701372
0.011280010934118366
0.011834978632982157
0.012392944229961504
0.012955016536136517
0.013523286666519299
0.014100627354347422
0.014690588901908296
0.015297307953487707
0.015925430092037177
0.016580037133340393
0.017266574967758692
0.017990778684542824
0.018758586824942608
0.01957594446734024
0.020447061552587346
0.021349302409353715
0.021868136201457267
0.0009166276835402434
0.0010094667436023367
0.0011927215967472383
0.0014079812587174207
0.0016525664082823236
0.0019273386728371675
0.0022329696574502167
0.0025696273828642417
0.0029369317620485803
0.00333394833651815
0.0037592045435346963
0.004210726489983045
0.004686094586814891
0.005182516765960988
0.005696920890195107
0.006226086742217087
0.006766866136471861
0.007316967372346372
0.00787619719838519
0.008461986228696336
0.009060101779611158
0.009650511910572812
0.010225976179614031
0.010795710029672053
0.011356550236344307
0.01191580300749094
0.012475784290739835
0.013038887859856666
0.013607804398740068
0.014185765343291369
0.014776558103243728
0.015384498262343636
0.016014379597616604
0.016671414601646877
0.017361168665394555
0.01808948808180707
0.01886241487363243
0.019685991250703576
0.020564477699367423
0.02147556002381381
0.02200008558868566
0.0009077024132679014
0.0010003969293060487
0.0011838681615747991
0.001399860775614795
0.0016456437257913105
0.001922063574107078
0.002229765571495117
0.002568888070906747
0.0029390206157047577
0.0033392018677054504
0.003767942277203369
0.004223271888331726
0.004702816092505382
0.005203906659447367
0.005723748250327569
0.0062596817160863695
0.006809694991960556
0.007373006038829074
0.007952831474302894
0.008531504103485152
0.009084891243609958
0.009641800402161418
0.010223199907448287
0.010800898792173741
0.011370923735678882
0.011934817869487068
0.012496381628970083
0.013058817630717015
0.013625440416458521
0.014199872488568457
0.014786169061495165
0.015388848194693796
0.016012877574692354
0.0166636364363521
0.017346862712125283
0.01806858900911353
0.018835061887763866
0.019652543109689155
0.02052553180482825
0.021431690994357974
0.02195341618574734
0.0008921225034540653
0.0009847992036151414
0.0011686912807842749
0.0013858766327880022
0.0016336292347851596
0.001912760050016856
0.0022238691962936734
0.0025670422056040796
0.0029418121670400648
0.0033471617940809364
0.0037815515020090413
0.004242974600420456
0.004729042673525564
0.005237106176605507
0.0057644144415578075
0.006308316787596094
0.006866360911927934
0.007436244288165575
0.008010604731055906
0.008579810325178553
0.00914339679154052
0.009705404515341291
0.010271241389151219
0.010842603933487035
0.01141093362384858
0.011974365717282403
0.012534197052394284
0.013093188811397191
0.01365464924337995
0.014222362341703262
0.014800580557413456
0.015394030311155328
0.01600789793748525
0.016647798187244617
0.017319728284868188
0.018030009212556816
0.018785207272465704
0.019591933437875114
0.02045505289723519
0.02135277944474294
0.02187039757920302
0.0008701216722081484
0.0009627708501073068
0.0011472944258925772
0.001366194781670644
0.0016167447887146373
0.0018997060409854062
0.0022156111912531376
0.0025644663078252055
0.0029457159343300983
0.0033582474060359683
0.0038004201188478618
0.004270119646595374
0.004764836088109094
0.005281761520418558
0.005817890195949216
0.0063700584998625555
0.006934834979713948
0.007507569970677622
0.00808275632135565
0.008655800254556447
0.00922437785307399
0.00979013597167252
0.010355352608617108
0.010919632786962952
0.011481772899404157
0.012039748920168802
0.01259377460216668
0.013145705097695153
0.013698493675001753
0.014255847187824596
0.014822099001429901
0.015402145586239372
0.016001404436824
0.016625772440153036
0.01728157801782549
0.017975523199129432
0.01871460586016611
0.01950591974253119
0.02035488070060394
0.021240582031233336
0.021752398560858408
0.000841530985911047
0.0009341752420347761
0.0011195648354472832
0.0013407300702662352
0.0015949352849832378
0.001882873536723458
0.0022049864966730147
0.002561172193682784
0.002950751809317439
0.0033724736594390715
0.0038245395535069413
0.004304651822400126
0.004810076996601683
0.005337715898727465
0.005884156198236984
0.006445673692735676
0.007018092280796407
0.0075968489579114114
0.008177364502719602
0.008755825983913973
0.00933017073340477
0.009899848733883753
0.010465042115411253
0.0110258007196768
0.011581452766091804
0.012131619068427605
0.01267661019832177
0.013217986234053581
0.013758423674633974
0.014301523227939109
0.01485165750805339
0.01541387661881653
0.015993842249405494
0.016597773645078244
0.017232394879162193
0.017904876513244242
0.01862276018955897
0.019393764844000988
0.020224048293656496
0.02109382757871959
0.021597862369372528
0.000806202006254443
0.0008988747987385888
0.0010853941894091942
0.0013094061775579442
0.0015681566108810797
0.0018622497224482634
0.0021920122314805245
0.0025572061766384957
0.002956995847534089
0.003389949286806336
0.0038540595008506543
0.004346783233593955
0.004865093107085321
0.0054055344942027265
0.005964275817406572
0.006537139823089832
0.007119676726142897
0.007707330634454244
0.00829579139758155
0.008881470202496328
0.009461801942637288
0.0100352864771693
0.010601148224525465
0.011158917859206433
0.011708351065960411
0.012249505077400335
0.012783133371659181
0.013310883284319307
0.013835404926968907
0.014360296463039808
0.01489001483605822
0.01542979189635503
0.015985566344703998
0.016563926203294863
0.017172055359889738
0.017817677690619118
0.01850898704103995
0.01925446341654388
0.02006116296796812
0.020910672828727963
0.021404722177666636
0.0007640346045331025
0.0008567781593083561
0.0010447119417381972
0.0012721791614621791
0.0015363931997026505
0.001837848317211253
0.0021767337483508888
0.0025526508026075473
0.0029645781784619625
0.003410869245930305
0.0038892672776298745
0.004396937620137131
0.004930514860728692
0.005486161922237022
0.006059639187269636
0.006646396098733391
0.0072417046319301435
0.00784086756838145
0.008439495618151627
0.00903379123606852
0.009620756821800431
0.010198231633228026
0.010764791997778512
0.011319614885848185
0.011862393942374358
0.012393410284362283
0.012913652108431959
0.013424965200094013
0.013930125138027048
0.014432849967101223
0.014937761866721315
0.015450332613907708
0.0159768287106314
0.016524261139770877
0.017100338285535217
0.017713417706811098
0.01837244563457244
0.019086784795317464
0.01986454090647604
0.020688957143652938
0.021170541198665856
0.0007150289930743616
0.000807883825052259
0.0009975207295149573
0.0012290621177862354
0.0014996717614530418
0.0018097127982590335
0.0021592176777066032
0.0025476079076957284
0.002973655351317704
0.0034354731763576655
0.003930524216434604
0.004455647874578142
0.0050071067760666275
0.005580654295136882
0.006171626710826565
0.0067750665877914715
0.007385887403279112
0.007999080403916968
0.008609947768023781
0.009214325263431201
0.009808745581430264
0.010390517854063381
0.010957729713952294
0.011509213417916477
0.012044532022991388
0.012564002001068619
0.013068759940367087
0.013560830865570065
0.014043180573983256
0.014519731105079828
0.01499534757749458
0.015475806854198967
0.015967760509313905
0.016478698487229628
0.017016914854681518
0.01759147313396052
0.0182121605980781
0.01888933380110332
0.019632296520845697
0.020426250896220834
0.02089256611143122
0.0006593455296289988
0.00075233322593899
0.000943935860050063
0.0011801504953775246
0.0014580719196370807
0.0017779123980081867
0.002139533700480844
0.002542166670795308
0.0029843647182750707
0.003463984999782293
0.003978187563373222
0.00452345622899781
0.005095645246632098
0.005690055423833682
0.006301543156671212
0.00692466539961361
0.007553860129797599
0.008183655076370875
0.008808887070996444
0.009424906075581227
0.010027738722905973
0.010614196429156675
0.011181931838532999
0.011729462955827535
0.012256187010963841
0.01276240261478128
0.01324934023715607
0.013719195743570627
0.014175153758034437
0.014621395674902983
0.015063091525606472
0.015506381975803042
0.01595835674514866
0.016427034703184323
0.016921347197689215
0.017451122775020634
0.018027063138428213
0.018660614921267166
0.019362416999930344
0.02011994625234741
0.020567825178585353
0.000597374361334504
0.0006904709978359705
0.0008842283463089773
0.0011256465814059855
0.0014117317801903117
0.001742528986043468
0.0021177237084814365
0.0025363565867559533
0.0029967631391181835
0.0034965395313438005
0.004032527827104229
0.004600827489664696
0.005196839737221646
0.005815349785299804
0.006450649716209513
0.007096701387189082
0.0077473340138187055
0.008396464899706075
0.00903832592976994
0.00966767537221321
0.010279976642403522
0.010871533298327348
0.011439579828635322
0.011982336476741393
0.012499040860165766
0.012989966786990928
0.013456437041798556
0.01390083051317634
0.014326583219985997
0.014738182109761503
0.015141153731022325
0.015542051504830198
0.015948446225603465
0.016368923061095858
0.016813086131974093
0.017291568592340004
0.017816038023266405
0.018399104713320194
0.019052859710021377
0.019767375887203082
0.0201932586915086
0.000529813400981507
0.0006229111609593214
0.0008188693274327038
0.0010658808169743635
0.0013608458728487521
0.001703632343827008
0.002093756156934189
0.0025300837674501774
0.0030107492243421586
0.003533095860776036
0.0040936401000616135
0.004688067639226571
0.0053112714146534
0.005957437766111443
0.00662018296238067
0.007292737055399355
0.007968166131689273
0.00863961842232047
0.009300575591303251
0.009945089424641677
0.01056798679679931
0.011165031811828369
0.011733041569413155
0.012269959078766084
0.012774891005685978
0.013248119660818515
0.013691097473709685
0.014106430506513196
0.014497856155339734
0.01487021951910754
0.015229453023262158
0.015582564081327525
0.01593763482319254
0.016303836557973992
0.016691459281327106
0.01711195354179914
0.017577974167678975
0.01810333682641765
0.018701671591107697
0.019365965012062794
0.01976588809620951
0.0004577508906076309
0.0005506055530813301
0.0007485723347514672
0.0010013264667568802
0.0013056522035278123
0.0016612407335470955
0.0020674627283356795
0.002523047835284809
0.003025966262876109
0.0035733338842689473
0.004161343463257949
0.004785236806606543
0.005439330916900081
0.006117106578106976
0.006811361500852577
0.007514422838247653
0.008218406646143069
0.00891550574363817
0.009598283689400822
0.01025995226793612
0.010894612894148602
0.011497448492038162
0.012064859683758821
0.012594546425723123
0.013085541743114182
0.013538207639539902
0.013954204626421137
0.01433644597227453
0.014689047097920262
0.015017279057823027
0.015327534083426974
0.01562730956227465
0.01592521531613263
0.01623100676916126
0.016555643927650694
0.016911372681558907
0.01731181730424163
0.0177719985939358
0.018307131104617753
0.018913417099679287
0.01928302514303714
0.0003827458131132162
0.00047490804291981794
0.0006743278922171481
0.0009326031215016029
0.0012464047870527472
0.0016152639462731913
0.0020384548314190233
0.002514636776319674
0.0030416826713675275
0.003616529878773431
0.004235063006364408
0.004892049686821136
0.00558114785659782
0.006294996030727426
0.00702538911771131
0.007763532259960431
0.008500355604197285
0.009226865294744903
0.009934501759724027
0.010615476256827237
0.011263060822598115
0.011871814047505235
0.012437734192839367
0.012958340140489752
0.013432688275116875
0.013861338608207006
0.014246286273925343
0.01459087507796904
0.014899708784240661
0.015178573881977686
0.015434384979567537
0.01567516152466425
0.015910041611311057
0.01614933601560893
0.016404622440768953
0.01668887602609691
0.01701662319329659
0.017404037575678075
0.017867910583248083
0.018407932287247554
0.01874252142558295
0.00030689385350053986
0.00039762400282205825
0.0005974224571478199
0.0008604636852362252
0.0011833290283540675
0.001565427860282639
0.002006019585009261
0.002503799149428724
0.0030566486357516513
0.0036614091808212087
0.004313692285343749
0.005007761960562606
0.005736513655180569
0.006491566063969063
0.007263469305887224
0.00804201897068284
0.008816652180954105
0.00957689130455729
0.010312795343002319
0.01101537935201441
0.01167696819488388
0.01229146131823963
0.012854497849355523
0.013363523850913127
0.013817774052765075
0.014218187808354951
0.014567282646453383
0.014869009558261696
0.015128612009670304
0.015352507506118862
0.015548206149212786
0.015724276793147904
0.01589036732406556
0.016057282609086107
0.01623712064997974
0.016443463812308164
0.01669161235272931
0.01699877626737247
0.01738325578099742
0.01784845464139981
0.01814305421854971
0.00023286063391735284
0.00032102926200666324
0.0005194311167512017
0.0007857608234737511
0.001116560666006329
0.0015111842854236722
0.0019689994221848204
0.002488896625032387
0.003068931187463203
0.0037059778520992645
0.004395438453255954
0.005131046572068435
0.005904804881876966
0.0067070783838126405
0.007526849106326742
0.008352118044501547
0.009170420221499305
0.009969403604223985
0.010737414303167603
0.011464031398063958
0.012140504281784021
0.012760061266569443
0.013318077257182448
0.013812106512344099
0.01424180150587944
0.014608748471491783
0.014916254454267011
0.015169119997961555
0.015373427514204542
0.015536369408526304
0.01566613338548012
0.015771856291769918
0.015863652829633573
0.01595272187998351
0.016051531048600142
0.01617407917701601
0.016336229397450306
0.01655603936175426
0.01685317611202676
0.017234939325613607
0.017484444378826524
0.00016385247494980472
0.00024783592859883933
0.0004421738820648722
0.0007093919657169761
0.0010460784204274918
0.0014516177581561018
0.0019256634595323288
0.002467545112325238
0.0030757364351306398
0.0037473419039101455
0.00447765855952735
0.005259869482025708
0.006084919760498171
0.006941609584840933
0.007816915249283785
0.008696519100380181
0.009565499491582495
0.010409107674279787
0.011213546090369876
0.011966664493845293
0.012658506292908161
0.013281663346844493
0.013831427315197058
0.014305753313177415
0.014705072667754086
0.015032003549439942
0.01529101144068714
0.015488067572984961
0.015630344772699253
0.015725980060226095
0.01578392271516434
0.01581387814790698
0.015826351197181555
0.015832788710155477
0.015845820021526257
0.015879595085927567
0.015950226498663757
0.016076293541439014
0.01627865721681838
0.016568623386020585
0.016767966322459516
0.00010350011246517923
0.00018107924812159644
0.0003676208161272758
0.0006322491967475628
0.0009716547654111117
0.001385354929015418
0.0018735826099415293
0.002436463254763564
0.0030732394996448066
0.003781533348725436
0.00455670403274685
0.005391381041786826
0.006275245954151321
0.007195118958438411
0.00813537227454046
0.009078646822958628
0.010006801063163224
0.01090198104751346
0.011747680476695443
0.012529663981835035
0.013236654310739566
0.013860728456730384
0.014397415729735028
0.01484553378161288
0.015206827552158332
0.015485489747412927
0.01568764032398622
0.015820831482052457
0.01589362812746866
0.015915296285932204
0.015895616510711152
0.01584482757806498
0.01577369813729634
0.015693720276471833
0.015617418244644968
0.015558769113689216
0.015533734044245918
0.015560919921142741
0.015661857072610825
0.015852305319058364
0.01599674040580229
5.8476674539431914e-05
0.0001238922841946352
0.0002978399730445253
0.000555213945811743
0.000892777845304634
0.001310476305954204
0.0018095424191484737
0.0023913730245476005
0.0030564668865249696
0.003803381168624088
0.004627804117813286
0.005521849091174411
0.006473685896100257
0.007467602317575474
0.008484542442049386
0.009503096449476445
0.010500837316093048
0.011455831752491001
0.012348118094969135
0.01316095227211271
0.013881674163046313
0.014502122823072172
0.015018610869402836
0.015431533614108019
0.01574472867509078
0.01596471196982063
0.01609990499356103
0.016159942213278742
0.016155117369479166
0.016095999210093827
0.0159932251548241
0.01585746695542222
0.015699555297733987
0.015530748131387401
0.015363130133363895
0.01521013257707127
0.015087172220864283
0.015012348184460582
0.015007060479258223
0.01509051611352913
0.015175533650550093
2.720937781395931e-05
7.941843607220981e-05
0.00023492384854198028
0.00047898195191374077
0.0008086576406431086
0.0012247014929110632
0.0017298192110968792
0.0023273117606294625
0.00301960755343437
0.003806813826253979
0.004685378224394727
0.005647021668101571
0.0066781194745169584
0.007759694263718796
0.008868116532168265
0.009976496521273777
0.011056611920062544
0.012081096377495248
0.01302554818903772
0.013870239316625866
0.01460119886478646
0.015210586518367944
0.015696408552768968
0.016061732654471295
0.016313604204274815
0.016461866693929517
0.01651805022637971
0.016494440952064184
0.01640339037997083
0.016256881492958467
0.0160663392541867
0.01584265862255216
0.015596419216415946
0.015338260101436463
0.015079396345041745
0.014832269235757306
0.014611320919893853
0.014433912146495836
0.014320773533756428
0.014293888271997996
0.014315160441678002
0.0007398381200323719
0.0011524766244672626
0.002276084162748947
0.004769887056188759
0.005808656740561284
0.00811113575935243
0.009321828451343458
0.011695308803609885
0.012788958617346254
0.014646461955578782
0.015373582059699721
0.015955289967455412
0.016392768191423452
0.016693188296473517
0.016868018632576576
0.016931331421776358
0.015456820999524383
0.015116820955266883
0.013861542150946775
0.013649587999380758
0.013480639557917092
1.1534395259787397e-05
5.4240256871770025e-05
0.0001907798916931915
0.0004199014213368689
0.0016626142717201234
0.002997841361402699
0.0038299842242140443
0.006930195001464469
0.010528351558818387
0.01378013374430258
0.01689832317556709
0.016784168851733384
0.016603250203581922
0.016368741481322762
0.016092504989342126
0.015785238342929178
0.014775140425838188
0.014442797668397718
0.014132864341969278
0.013520272063969245
9.723674328506291e-06
4.1098111822214484e-05
0.00015800151386557407
0.0003701532906844803
0.0006755495101149281
0.0010768975230380628
0.0015804475202971981
0.002194024604719213
0.00292475857442344
0.003776751541091624
0.004748782518632265
0.005832328303730069
0.007010259866672079
0.008256593992679376
0.009537569255928588
0.010814072196176845
0.012045116980042993
0.013191785764457448
0.014220892467145927
0.015107704550775146
0.015837322038593567
0.016404656747636935
0.016813256154337396
0.01707338988922621
0.017199850701657086
0.017209847595849932
0.01712124375980841
0.016951260756034477
0.016715666378261766
0.016428396507594943
0.01610153036918498
0.015745535526271653
0.015369712095703328
0.01498278770823727
0.014593639585246534
0.01421214034552779
0.013850154839503092
0.013522681761359713
0.013249237557553438
0.013053851828809287
0.012976412015760375
1.4761988614559136e-05
3.4844621681026645e-05
0.00013346633802926463
0.0003293703180596733
0.0006207179745358416
0.0010109503495792445
0.0015079523877622853
0.0021217130579846517
0.002861764554154893
0.0037344454950297653
0.004740137072279872
0.005870775076996964
0.007108103604085167
0.008423187928433142
0.00977758908175412
0.011126290152504124
0.012422018098621649
0.013620179355576457
0.014683411488411102
0.015584857170010897
0.016309649961266708
0.016854591598252016
0.017226407369504267
0.017439175277035788
0.01751153064173206
0.01746411428025492
0.017317544657116282
0.017091017900904573
0.016801511222543617
0.016463493322804498
0.01608902098702165
0.01568810933310929
0.0152692887812009
0.014840293261317774
0.014408853821977185
0.013983603598619554
0.013575091537570793
0.013197035099744204
0.012867266389186869
0.012613017181417524
0.01250341904750982
2.4629062736829313e-05
3.336859434113778e-05
0.00011301785599876783
0.0002914285074985154