# vtk DataFile Version 2.0
time_10.vtk
ASCII
DATASET UNSTRUCTURED_GRID
POINTS   4141  float 
0.00011462587050354717        -4.155242512615231e-17        0.0                           
0.24999999999999992           0.0001089221844998651         0.0                           
0.5001056807854257            2.2534206145927433e-17        0.0                           
0.7499999999999999            9.831035106192536e-05         0.0                           
1.0000941453087544            5.153793163136709e-17         0.0                           
1.25                          8.478737591140232e-05         0.0                           
1.5000795765752253            -6.083423369760472e-17        0.0                           
1.75                          6.807055299571815e-05         0.0                           
2.0000617765184914            1.3507092748006753e-16        0.0                           
2.25                          4.8132273152993184e-05        0.0                           
2.5000408014622013            1.5210182305894996e-17        0.0                           
2.75                          2.519778965314693e-05         0.0                           
3.000016974732964             -7.006645620720402e-17        0.0                           
3.25                          1.5456430908970224e-17        0.0                           
3.499990488700813             -1.7394505765910365e-16       0.0                           
3.75                          -2.883486400587518e-05        0.0                           
3.9999612502110735            -9.758617863392183e-17        0.0                           
4.25                          -5.91195784090802e-05         0.0                           
4.499930435996863             -1.5723431170068667e-17       0.0                           
4.75                          -9.094633204708954e-05        0.0                           
4.9998981209328335            2.487037461770278e-16         0.0                           
5.25                          -0.00012423277131486454       0.0                           
5.499864336182828             6.995339405201525e-17         0.0                           
5.75                          -0.0001590803723464139        0.0                           
5.999828907508004             -4.470893709456396e-18        0.0                           
6.25                          -0.0001958097472738066        0.0                           
6.499791444305605             -3.314980393757131e-17        0.0                           
6.75                          0.0001142584262516584         0.0                           
7.000111532728716             7.948498599563057e-06         0.0                           
7.25000862000592              0.00010532452558728907        0.0                           
7.500101796054118             1.0068380959330346e-05        0.0                           
7.7500108381269746            9.379310091025837e-05         0.0                           
8.000089288114937             1.2447913414116392e-05        0.0                           
8.250013278941497             7.921812185586757e-05         0.0                           
8.5000736415307               1.4970315402986737e-05        0.0                           
8.750015821687352             6.140004106587951e-05         0.0                           
9.000054742262382             1.7514724509777495e-05        0.0                           
9.250018348691665             4.039171575043207e-05         0.0                           
9.500032722301578             1.9974136794443034e-05        0.0                           
9.750020759091717             1.6464984524829822e-05        0.0                           
10.000007887059256            2.2261396216268415e-05        0.0                           
2.308350628794166e-05         0.2999898122225132            0.0                           
0.24998034688704338           0.3000245688947946            0.0                           
0.5000252370435078            0.29996073669273843           0.0                           
0.7499506391410461            0.30002653784366307           0.0                           
1.0000271731664714            0.2999299117320557            0.0                           
1.2499192962542325            0.3000284247890297            0.0                           
1.500029047283917             0.29989758231402064           0.0                           
1.7498864848371947            0.300030303739867             0.0                           
2.0000309455463263            0.29986379105701505           0.0                           
2.2498521791698884            0.3000322763805236            0.0                           
2.5000329732640445            0.2998283654471774            0.0                           
2.749816131672936             0.30003444822034825           0.0                           
3.0000352327592905            0.29979091289769644           0.0                           
3.249777883151023             0.30003691047642117           0.0                           
3.500014607494812             0.3001104426393712            0.0                           
3.750107484129603             0.30001721919577656           0.0                           
4.000018637385888             0.3001007340920146            0.0                           
4.250096900090952             0.3000216650552072            0.0                           
4.500023258302422             0.300088228913896             0.0                           
4.750083366941132             0.3000265590050827            0.0                           
5.000028247953734             0.30007255258071275           0.0                           
5.250066594826342             0.3000316574561118            0.0                           
5.500033360732554             0.3000535876932626            0.0                           
5.750046550400779             0.3000367252141608            0.0                           
6.000038372977554             0.30003145441461926           0.0                           
6.250023416766739             0.3000415749422857            0.0                           
6.500043127626446             0.30000639859772565           0.0                           
6.749997461914646             0.30004619891236134           0.0                           
7.000047688483956             0.2999788129727857            0.0                           
7.249969122245713             0.3000504745488561            0.0                           
7.5000517975319765            0.2999491017600697            0.0                           
7.7499388077844715            0.30005436309575134           0.0                           
8.000055618193624             0.29991770843615106           0.0                           
8.249906916320189             0.3000581056167251            0.0                           
8.500059352503406             0.2998848595441888            0.0                           
8.749873591265466             0.300061891922202             0.0                           
9.00006320074501              0.2998505437962197            0.0                           
9.24983874331386              0.3000659369366814            0.0                           
9.500067379612714             0.2998145144177201            0.0                           
9.749802048383705             0.3000704485796743            0.0                           
10.000072086678967            0.2997763021480936            0.0                           
0.00011131580694176081        0.6000218496416321            0.0                           
0.2500237528298925            0.6001056851549206            0.0                           
0.5001024726378219            0.6000279096891082            0.0                           
0.7500301444781504            0.6000951365472506            0.0                           
1.000090974688424             0.6000348676209909            0.0                           
1.2500373293046585            0.6000815914527421            0.0                           
1.5000763513093387            0.6000423830128725            0.0                           
1.750044947100896             0.6000647520152883            0.0                           
2.0000583936231418            0.6000500831812541            0.0                           
2.2500526308848374            0.6000445824784961            0.0                           
2.500037145951351             0.600057633847167             0.0                           
2.7500600736024583            0.6000212625701501            0.0                           
3.000012839310501             0.6000648140838887            0.0                           
3.250067116999165             0.5999951198633487            0.0                           
3.4999858661424343            0.6000715654365762            0.0                           
3.7500736886172055            0.5999666413760749            0.0                           
3.9999566976031               0.6000777340314865            0.0                           
4.250079677702543             0.5999362266092318            0.0                           
4.499925727138733             0.6000834621202317            0.0                           
4.750085323709753             0.5999042468694474            0.0                           
4.999893275646197             0.6000890412811676            0.0                           
5.25009092111858              0.5998708720641016            0.0                           
5.499859430784279             0.6000947849465588            0.0                           
5.750096793884059             0.5998360234725315            0.0                           
5.999824029952368             0.6001010258180727            0.0                           
6.250103270922915             0.5997993730498145            0.0                           
[...]
POINT_DATA  4141
SCALARS Con float 1
LOOKUP_TABLE default
0.0017215017921026485
0.0018844292019049474
0.0022083204328794074
0.0025878709062920223
0.003017832166117474
0.003499617190870176
0.0040343361982020515
0.004622245391772778
0.005262673065471862
0.005954014861548518
0.006693767056977538
0.007478592567722782
0.00830441320039799
0.009166517772080605
0.010059670733606965
0.010978193679796812
0.011916029791582131
0.012866681034948901
0.013825491697095134
0.014798947201009343
0.01587804590138023
0.016972880790705504
0.017987668901633447
0.018960428889555826
0.019940962091626054
0.02092709237168151
0.021920420375245317
0.02292326887783736
0.023939394396276147
0.02497370457559102
0.026032102144210704
0.027121337181993575
0.02824887434333378
0.02942276375742775
0.03065151094444616
0.031943942652563236
0.03330905986221175
0.03475573194741944
0.03628996460004587
0.03787310159205244
0.03878089475946431
0.0017563544740498618
0.0019233874799363694
0.0022541012305142003
0.00264101852681575
0.003078910217738368
0.0035690577428703755
0.004112437853206928
0.00470916486980704
0.005358423707298648
0.006058471354481756
0.006806677548501368
0.007599600395024713
0.008433093290263646
0.009302439704987571
0.010202515672049176
0.01112800619004158
0.012073723601318209
0.013035736477226414
0.014012512594256262
0.01502873788097099
0.01606317434019113
0.01708582774497962
0.018089927114204474
0.019092186163903197
0.020083909683230212
0.021075946526602
0.02207210251557531
0.023076489356756453
0.024093715497120843
0.025129217616497074
0.02618926134414136
0.02728087995972712
0.028411778735409423
0.029590223640460704
0.030824919649612266
0.03212488034711674
0.03349928127555617
0.0349571545770553
0.03650457020012324
0.03810333077591048
0.03902106457168268
0.001740508885385008
0.0019073062606560652
0.002238445934766158
0.002626712521967843
0.0030667799235562566
0.0035598994327163663
0.00410699517748527
0.004708120528463599
0.005362395126396716
0.006068012559911804
0.006822290072575582
0.007621759330200158
0.008462300593057786
0.009339328351878156
0.01024805379063406
0.011183875105490147
0.01214310850567506
0.01312372093989739
0.014129584761195657
0.015134250110125836
0.01610931392452629
0.01709206376475864
0.018105610797800875
0.019115600858315672
0.02011843559746639
0.021115531450067906
0.022112540990347762
0.023114540927004008
0.02412695684669622
0.025155759201444423
0.02620760036500309
0.027289825863616567
0.028410426879333407
0.02957795749732488
0.03080143053799942
0.032090197657767064
0.03345380656415638
0.03490168027315971
0.03644026529184746
0.03803108264378064
0.03894407923414661
0.0017127482143534261
0.0018795405478620887
0.0022114895107805586
0.0026019415341209276
0.0030455739320565446
0.003543568256340426
0.004096759190894279
0.004705093816521563
0.005367575408713415
0.006082277666028326
0.006846402560614891
0.007656381848348011
0.008508024977938742
0.009396718492260273
0.01031768015521635
0.011266269240365235
0.012238141278001716
0.013229270978284774
0.014228557603427224
0.015223409185169415
0.016212305725464726
0.017200249121218807
0.01819437897415388
0.019196183740601152
0.020195258512184195
0.02118992757157549
0.022182391908549415
0.023177128867642494
0.02417954304443426
0.025195839266184347
0.026232974478651947
0.027298633809378702
0.02840118054407316
0.029549581480684387
0.03075331098651629
0.03202223572116754
0.03336646894258167
0.034796032512095856
0.03631796337016697
0.03789461130924025
0.038800738811739406
0.0016734968126603305
0.0018402774770922149
0.0021734419222280933
0.0025670474487389035
0.00301575971939205
0.0035206634970818577
0.004082461534409271
0.00470094444303765
0.005374939860309049
0.006102331045913484
0.006880117549944994
0.007704516426751863
0.008571101790351138
0.009474973984587024
0.01041093432654418
0.011373576039893097
0.012357179604386512
0.013354425961306196
0.014357211345238112
0.015358611557670813
0.01635515964365389
0.017348538501285087
0.01834133562358114
0.019333153326934728
0.0203226221904459
0.02130767665430225
0.02228933929845959
0.023270911062984935
0.024257354247299943
0.0252548100322616
0.02627040458087606
0.027312134930439935
0.028388782050611
0.029509822151830147
0.030685326524520072
0.03192584387704699
0.0332422493525205
0.03464540177078416
0.03614327431651367
0.037699772188412556
0.03859643083738337
0.001622393510608835
0.0017892191132068335
0.002124057490987567
0.0025218462390949404
0.0029772231219823146
0.0034911392869652965
0.004064121052090322
0.004695749416196571
0.0053846132742697535
0.006128329058958978
0.00692359888142119
0.007766303506197579
0.008651623371827361
0.009574172117498171
0.010528108105171047
0.011507178470379218
0.012504569725678054
0.013513084906344166
0.014525630031215679
0.015536376789101823
0.016541907132673013
0.017540978109545614
0.018533522160680622
0.019519532519429277
0.020498401241576578
0.021470120102791146
0.022435818268720948
0.023398469611921525
0.02436271429118721
0.02533461221655125
0.026321423312716922
0.02733145801264242
0.02837396070415455
0.029459004961270952
0.03059738604945207
0.03180050081373832
0.03308019860304443
0.03444844966623716
0.03591455367473982
0.03744435765604407
0.03832818070713299
0.0015590889853597217
0.0017260417769889133
0.002063079488993428
0.0024661559082576083
0.002929860212572789
0.0034549712003537005
0.004041793114824485
0.004689644817845802
0.005396814936226439
0.006160579672314002
0.006977255411043397
0.007842281952826083
0.008750329443581237
0.009695415743293148
0.010671017738481638
0.011670158822141551
0.012685561576788336
0.013709913775857629
0.014736394996207896
0.015759298994814902
0.016774459247571614
0.017779294333319078
0.018772404839961798
0.0197530763519811
0.020721169881942007
0.021677225738261606
0.022622942470775554
0.023561430361888448
0.024497348611814337
0.025436827091977046
0.02638733794570942
0.027357564855270553
0.02835728702505911
0.029397271519493007
0.030489165514955868
0.031645379859031576
0.03287894834565617
0.034203214218781405
0.03562907666667625
0.03712469667761091
0.03799189240161715
0.0014832939223582739
0.0016504806825793563
0.001990299298824119
0.0023998382240524602
0.002873609183410005
0.003412177832858856
0.004015582398909486
0.004682831443117436
0.005411858421645763
0.006199535116729003
0.007041717467629691
0.007933321347324876
0.008868424561305021
0.009840389614370015
0.010842003421535018
0.011865650587159314
0.012903542285222808
0.013948044701943342
0.014992080802314586
0.016029535127006254
0.017055538937141814
0.018066544314230427
0.019060222696279716
0.02003531542405003
0.02099154286354253
0.021929689738167082
0.02285175259589617
0.02376112385469983
0.024662680862554867
0.025562796462278135
0.026469278565826957
0.0273912825676158
0.02833921657062382
0.02932464633950023
0.030360198166023904
0.03145945419392778
0.032636825536991765
0.03390725282546885
0.03528349707990603
0.036736516230257685
0.037582764670369063
0.0013948696375155568
0.0015624062873531934
0.001905619579411291
0.002322843260809408
0.0028084760390388757
0.0033628286493491122
0.003985633718981743
0.004675549474949693
0.005430109920269494
0.006245730541450147
0.007117745851445606
0.008040479483863308
0.00900734756934833
0.010010995643540811
0.011043472719623935
0.012096449171280825
0.013161489418243496
0.014230374748996584
0.015295453341415218
0.016349964111963863
0.017388278819701262
0.01840603187274991
0.019400151815757674
0.020368842898534408
0.02131158252290579
0.022229155795767647
0.023123737778655628
0.023998976952791542
0.024860057750373366
0.025713715462461758
0.026568211030986718
0.027433277237795588
0.028320051452212395
0.029241002732665253
0.030209854847655714
0.03124150191971304
0.03235190193391614
0.033557799059618296
0.03487408328230439
0.036275032601632735
0.037095394688586254
0.0012939342794169005
0.001461918985765512
0.001809125602381128
0.002235256454025069
0.002734556402542277
0.0033070408220258842
0.003952105057437323
0.0046680292382563745
0.005451917853059765
0.00629969215517765
0.007206115630895598
0.008164857179696214
0.009168596715370373
0.010209176791083607
0.01127780279517041
0.012365293138905812
0.013462375163680616
0.014560013744011554
0.015649745848967802
0.016723987280982244
0.017776279808236886
0.018801463066225634
0.019795776467884524
0.020756914891424543
0.021684063951839833
0.022577937345012192
0.023440818525598536
0.024276602505145406
0.025090823337276687
0.02589066068749797
0.026684923383089643
0.027484016309270626
0.02829989750225705
0.029146031209491247
0.030037338251520572
0.03099014068503408
0.03202208610690137
0.03315190537751093
0.03439687004845481
0.035735131819543055
0.03652397167161032
0.001180988944566183
0.0013494587576160192
0.0017011646176117894
0.002137345492875002
0.002652049480455859
0.003244960953772726
0.003915119166594925
0.004660415965840988
0.005477514873232615
0.006361820991029037
0.00730748701934588
0.008307464516026413
0.00935360870966461
0.01043684201721087
0.011547377357662428
0.012674997080931933
0.0138093766010049
0.014940433788902396
0.016058678858900215
0.017155537082998308
0.01822362152234545
0.019256943152828394
0.020251058769021692
0.021203166781037612
0.022112166435057746
0.022978693672080705
0.023805143226516782
0.024595679618095397
0.02535623791049976
0.026094513711437273
0.026819944692091296
0.02754368746574831
0.028278594590299747
0.02903919474413088
0.029841676360514508
0.030703870907961138
0.03164522074225935
0.032686589203414385
0.03384785095746298
0.035111600713794856
0.035862531230665504
0.0010570618587041729
0.001225928192071669
0.0015824298018282603
0.0020296029553375093
0.0025612591962980266
0.003176726351375549
0.003874688572729734
0.004652664143880484
0.00550688904855884
0.006432250236746296
0.007422260311826881
0.008469088087430616
0.009563657259923216
0.010695819889946733
0.011854604334168163
0.013028529398777846
0.014205968375009266
0.015375539759238317
0.01652649729022125
0.017649092269192174
0.01873488605047731
0.01977699924693485
0.020770293853099826
0.02171149318322689
0.022599249646754943
0.02343417282112786
0.024218829450104614
0.02495772527094157
0.025657276755773426
0.02632577950710908
0.02697337951534276
0.027612053128912403
0.028255600181900153
0.028919652634999217
0.029621697813791866
0.030381111234439432
0.03121918301053513
0.03215900027088662
0.03322321170796764
0.034399423288253704
0.03510528487830666
0.000923865375617148
0.0010928234054272824
0.0014540429721281085
0.0019127784373822669
0.002462576120278116
0.0031023993779476294
0.0038306076111038717
0.004644395227988515
0.005539618033713293
0.0065106693185046196
0.007550405647322139
0.008650143816792705
0.00979974640162834
0.010987804872528725
0.012201918890823721
0.013429059444737506
0.014655993650706467
0.015869741731319702
0.01705803334780192
0.018209731893206748
0.01931520102648913
0.02036659670323328
0.021358077810776668
0.022285937822611193
0.023148666901085958
0.023946958352114515
0.024683675355714762
0.025363793755540143
0.025994335850342595
0.02658430807335265
0.027144653772255573
0.0276882297869401
0.02822981310598137
0.028786140266527097
0.029375978163371206
0.030020219748020358
0.03074198706473566
0.03156660880695283
0.03251960661949927
0.03359414215227358
0.034247026850984824
0.0007839552158226965
0.0009523625121225322
0.0013176266710248278
0.0017878918713287288
0.002356432903477351
0.003021868555856653
0.003782305517885099
0.0046347125418800565
0.005574659513895602
0.006596107201549125
0.0076912589277665306
0.008850505585479696
0.010062489167257
0.011314297229215549
0.012591785892843198
0.013880013939559177
0.015163757605360604
0.016428066731743782
0.017658819436638228
0.018843234780932805
0.019970310486308603
0.021031163727411147
0.022019265482755478
0.02293057068273263
0.02376355609879029
0.02451918460641092
0.025200818209180204
0.025814103107463997
0.026366849049767948
0.026868922644907197
0.02733217090828828
0.027770387672038654
0.028199331413306654
0.028636798681562103
0.029102752520036898
0.029619498386658717
0.030211886313967953
0.03090741162033287
0.0317344735199357
0.032692282450492945
0.033283618559962834
0.0006408720293442074
0.0008075941796804004
0.0011753517701108425
0.0016562179295666125
0.0022432271855441555
0.0029347128415455645
0.0037286578068459
0.004621970154827967
0.005610093859200285
0.006686670580216866
0.007843280218797143
0.009069308287860026
0.01035197586307103
0.011676549448985194
0.013026727135009184
0.01438517641211247
0.015734181033387532
0.017056342089829504
0.01833527408579846
0.019556240616220535
0.020706685031096548
0.021776627013611553
0.02275891335739459
0.023649327653064416
0.02444657701030238
0.025152183395400925
0.02577031198568219
0.026307570187076166
0.02677280861375644
0.027176951409519787
0.027532877641150092
0.027855370256510945
0.028161143218536248
0.028468952953842483
0.028799795258025472
0.02917718224371077
0.029627477322249608
0.030180152156721235
0.03086637926238192
0.031691829076700005
0.0322125413721682
0.0004992347445325995
0.0006624594063126269
0.0010299414833621933
0.0015192331693887151
0.0021232112228112836
0.0028400330548481625
0.003667760118684313
0.0046034978505625265
0.005642820348220311
0.006779238684977797
0.008003778162533013
0.009304732768090247
0.010667645882024594
0.012075542091717031
0.013509405356400767
0.014948868845422602
0.016373055164608217
0.017761488192991018
0.019094991430256558
0.02035649402473626
0.021531682399471463
0.02260945889945138
0.023582194789468432
0.024445788753326737
0.025199561116206488
0.02584602630195593
0.026390591764060056
0.02684123132973577
0.027208176249098232
0.027503659875746038
0.02774174332029187
0.027938241002684508
0.028110757790890124
0.02827884382965856
0.028464269666759242
0.02869142256800333
0.028987811862174643
0.029384561703837433
0.02991538241585696
0.03059273715631984
0.031033504929022633
0.00036473360321825416
0.0005217663746879549
0.0008846130416463693
0.0013785223674402261
0.001996363690763103
0.002736267693925351
0.0035966746287862303
0.004575292449068728
0.005668218769019201
0.006869127526908239
0.008168614760846871
0.009553790597188923
0.011008187554245452
0.012512022421182548
0.014042807975336203
0.015576265681629143
0.017087450306742705
0.018551969691038547
0.01994717374253422
0.021253197132858084
0.022453767423609525
0.023536727791906558
0.024494263733260933
0.025322858831126473
0.02602303152273629
0.026598920302764124
0.02705778967293272
0.027409525197508708
0.027666175837036195
0.027841588910014772
0.027951168953984546
0.02801177975053395
0.028041798545919566
0.028061325149826233
0.028092546174750918
0.028160256437577913
0.028292551642420633
0.028521626569162916
0.02888343116999238
0.029397442250094045
0.029749037002381577
0.00024398192555745066
0.00039103280311087514
0.000742926955094901
0.0012356893892002164
0.0018622847014302189
0.0026209977547418492
0.003511164164110787
0.00453170314970605
0.005679808213242215
0.006949754879385944
0.0083319201442631
0.00981213928477587
0.011371502186824351
0.012986651923581949
0.01463058798438084
0.016273906820575553
0.017886348024479602
0.019438468990577364
0.02090325589132564
0.022257497306175864
0.023482792289447534
0.024566127619181106
0.02550002243088047
0.026282293741147884
0.026915533163193155
0.027406403467177397
0.027764863598703483
0.028003418536363373
0.028136469890246617
0.028179820480869415
0.02815036458613895
0.02806597798833906
0.027945609269057144
0.02780956647112234
0.027679990524728658
0.02758151194757616
0.02754209141160885
0.02759409271452753
0.02777475146599013
0.028111373283511407
0.02836519426778243
0.00014694303609681138
0.0002761219445404522
0.0006087170981753344
0.00109234734356156
0.0017200225844177792
0.002490732434014654
0.0034054692700769226
0.004465186085168696
0.00566897966715765
0.007012373308889417
0.008485875279588315
0.01007398176766904
0.01175479017688698
0.013500331741568951
0.015277645534809802
0.01705050386807804
0.01878159149591927
0.02043486242919053
0.021977772879559133
0.0233831206492867
0.02463030315518779
0.02570591215713656
0.026603690106397127
0.027323956148680342
0.02787266136036763
0.0282602478685269
0.02850047524456969
0.02860934629724353
0.028604226084459363
0.02850320932301
0.028324759304397536
0.02808761800302591
0.02781097352139501
0.02751486481877526
0.027220804622913437
0.026952602275733567
0.02673738355975962
0.026606705700798153
0.026597605849734363
0.02674337969639079
0.026891295801589964
7.584337972000132e-05
0.00018320125573023177
0.00048599940928471564
0.0009497957268042865
0.0015680434190853349
0.0023411957643771353
0.003272760882438149
0.00436684284953783
0.005625575676628527
0.007046698053853303
0.008621434676402003
0.010332955826755754
0.012155676358959673
0.014055597160148226
0.01599175819719795
0.017918690890616026
0.01978956660431709
0.021559598762010038
0.023189206630139136
0.024646512123534036
0.02590888875974968
0.02696347378888253
0.0278067315036458
0.028443285879874356
0.028884301681778343
0.02914569660674926
0.029246422633115755
0.02920699039117651
0.029048338942279227
0.02879109285918794
0.02845520280428933
0.028059939311043645
0.027624198534681503
0.027167080807166902
0.02670871230826257
0.02627129409530551
0.025880357764424617
0.0255662583471652
0.02536484886839055
0.02531408594578451
0.02534843012564161
0.0014452168967156265
0.002217835888194461
0.0042945457543204476
0.008810879972003128
0.010663270331593281
0.014722269366400356
0.016835290573143005
0.020946536132068434
0.02283131693717866
0.026027435711732893
0.027279855614955148
0.028284058115516326
0.029041701788757115
0.02956411350156686
0.029869733420902527
0.029981516928297456
0.02737190732988833
0.02676735638165378
0.024537574001501646
0.024160385205865425
0.023853272954280788
3.716643638401385e-05
0.0001272906316551709
0.00039911561802323607
0.0008398046092102637
0.0031648264189604487
0.005613155357674407
0.007121252963354184
0.012647769763564139
0.018929552948294546
0.024536905013192424
0.0299246103254479
0.029724496487111614
0.02940569538344921
0.028991018245798538
0.028501321129852035
0.02795567962260248
0.026159962987862974
0.02556952927231982
0.025019268242937754
0.023927488817628607
2.561704325858988e-05
9.512109370924918e-05
0.00033311610715882424
0.0007452654132248461
0.001327080827701598
0.00208266475336808
0.0030218072614798083
0.0041563369353346015
0.005496035061090796
0.007044618997046235
0.008796014405268969
0.010731421023381267
0.012817732388826537
0.0150078155218758
0.01724290155152274
0.01945692996916158
0.02158223679420388
0.023555633849290207
0.025323828233862016
0.026847314344343703
0.028102265068088016
0.029080403251655784
0.029787212356709534
0.03023906151490033
0.03045986819586841
0.030477837286437263
0.030322660136458256
0.030023383487512687
0.029607008814323522
0.029097776549903576
0.028517031633611634
0.027883550303693282
0.02721421936212943
0.026524987594344424
0.025832045752056946
0.025153222517211977
0.02450963615964415
0.02392757260712327
0.023440761853608664
0.023090226846449798
0.0229487109589669
2.7501370724035888e-05
7.710207547828026e-05
0.00028323141124489854
0.0006677570524568836
0.001226571940463083
0.001965219064199539
0.0028964842069323007
0.004035998166467987
0.005397579221267651
0.006988455933052901
0.008804724343420127
0.010827605077752864
0.01302125161325305
0.015332821604839696
0.01769522427101906
0.02003241527435756
0.022266475827886986
0.02432521272500424
0.02614886074687292
0.027694729127972793
0.028939198634036233
0.029877118056583798
0.03051915644088245
0.03088792855220768
0.031013727641447518
0.030930542128840853
0.030672794591075234
0.030273001260993342
0.029760359516500634
0.02916015034372526
0.028493789001756212
0.027779354973980316
0.02703246166107023
0.026267370446038444
0.025498298352249427
0.02474092090373701
0.024014052213717666
0.023341720396742566
0.022754639537327974
0.02229958040717413
0.022101260502323954
3.917116675803427e-05
6.853123282206795e-05
0.00024112145624837137
0.0005954050413628489
0.0011280971653096449
0.0018463536072520677
0.0027663154848764394
0.003908028433767068
0.005290077476757056
0.006923980904634642
0.008808660860083044
0.010925687461836649
0.013236271547179504
0.015681007303918987