# vtk DataFile Version 2.0
time_10.vtk
ASCII
DATASET UNSTRUCTURED_GRID
POINTS   4141  float 
6.170519983711237e-06         -3.3003737636275517e-17       0.0                           
0.25000000000000006           5.830639347565833e-06         0.0                           
0.500005642539781             4.858496240839382e-18         0.0                           
0.75                          5.224101043022025e-06         0.0                           
1.000004991793678             -2.3912473629642474e-15       0.0                           
1.25                          4.4772672721594414e-06        0.0                           
1.5000041940646494            4.1296812887722726e-17        0.0                           
1.75                          3.574637256490958e-06         0.0                           
2.0000032384767623            5.462128466338847e-15         0.0                           
2.25                          2.5146855657508505e-06        0.0                           
2.500002128122783             -4.763249311097881e-17        0.0                           
2.75                          1.3097931511532771e-06        0.0                           
3.0000008807330096            -3.3494981138652008e-15       0.0                           
3.25                          3.182884730814796e-16         0.0                           
3.499999507821806             -1.72104319347327e-17         0.0                           
3.7500000000000004            -1.4862395472526607e-06       0.0                           
3.9999980063133367            -1.0169391251215188e-16       0.0                           
4.25                          -3.0308870029522134e-06       0.0                           
4.499996440065609             -2.359806787306744e-17        0.0                           
4.75                          -4.637198450698197e-06        0.0                           
4.9999948149982405            -1.5867608936238193e-16       0.0                           
5.25                          -6.298910868992558e-06        0.0                           
5.499993134549009             -8.859246878147232e-17        0.0                           
5.7499999999999964            -8.019986768281722e-06        0.0                           
5.99999139062123              -1.988947520074333e-17        0.0                           
6.25                          -9.817055804576381e-06        0.0                           
6.499989562380518             1.6773870432877912e-15        0.0                           
6.75                          6.153934496366338e-06         0.0                           
7.000005989843038             4.73844516777066e-07          0.0                           
7.250000504710056             5.626561925552144e-06         0.0                           
7.500005424865995             5.721940507268831e-07         0.0                           
7.750000608427798             4.976052709023821e-06         0.0                           
8.000004727266598             6.847484214467082e-07         0.0                           
8.250000724342973             4.178029471923247e-06         0.0                           
8.500003876941754             8.051371458803958e-07         0.0                           
8.750000845838615             3.2215457270628837e-06        0.0                           
9.000002867629844             9.266697093836597e-07         0.0                           
9.250000966364125             2.109520455087102e-06         0.0                           
9.500001706619207             1.0433196181240986e-06        0.0                           
9.750001080204617             8.570211844310787e-07         0.0                           
10.000000410952516            1.149976945371957e-06         0.0                           
1.1884179764550184e-06        0.2999994754891502            0.0                           
0.24999898791337263           0.3000012563613078            0.0                           
0.5000012862415354            0.29999798270497835           0.0                           
0.749997467709597             0.3000013436581773            0.0                           
1.0000013713124678            0.2999964160534328            0.0                           
1.249995880296964             0.30000142510364197           0.0                           
1.5000014515806845            0.29999479036447513           0.0                           
1.7499942363687317            0.3000015047134658            0.0                           
2.0000015318199154            0.2999931096430476            0.0                           
2.2499925361641737            0.3000015882983693            0.0                           
2.5000016181501095            0.2999913658801245            0.0                           
2.7499907673600514            0.3000016822378697            0.0                           
3.0000017169011133            0.29998953817836543           0.0                           
3.2499889049798116            0.30000179237981595           0.0                           
3.500000888873965             0.3000059407483576            0.0                           
3.7500057660166926            0.3000010082720759            0.0                           
4.000001074097272             0.3000053773132031            0.0                           
4.250005161027671             0.30000121619843645           0.0                           
4.50000129159539              0.3000046799384837            0.0                           
4.750004413778761             0.30000144865123146           0.0                           
5.000001529294501             0.3000038281674644            0.0                           
5.250003508422618             0.30000169228893914           0.0                           
5.5000017736751206            0.30000281558586883           0.0                           
5.750002443165384             0.3000019340166314            0.0                           
6.000002012201813             0.3000016488905717            0.0                           
6.250001228226415             0.3000021631367331            0.0                           
6.500002235717944             0.3000003419898298            0.0                           
6.749999878897165             0.3000023782345772            0.0                           
7.000002446594237             0.29999891709187215           0.0                           
7.249998419703256             0.300002572328778             0.0                           
7.500002631051953             0.2999973972197092            0.0                           
7.74999687414742              0.3000027432694613            0.0                           
8.00000279741089              0.29999580763555644           0.0                           
8.24999526502967              0.3000029035143289            0.0                           
8.500002956282314             0.2999941620840607            0.0                           
8.74999360166333              0.3000030634794985            0.0                           
9.000003118857157             0.29999246149245185           0.0                           
9.249991880665947             0.30000323559162395           0.0                           
9.500003297901173             0.2999906936001599            0.0                           
9.749990085318343             0.3000034326355953            0.0                           
10.000003505849213            0.2999888331113528            0.0                           
6.021087023384427e-06         0.6000013299741604            0.0                           
0.2500014164875293            0.600005685167186             0.0                           
0.5000054986477237            0.6000016086095126            0.0                           
0.7500017131990717            0.6000050821507189            0.0                           
1.0000048500897225            0.6000019362391984            0.0                           
1.250002053240928             0.600004334424135             0.0                           
1.5000040497958353            0.6000022943839795            0.0                           
1.7500024169842485            0.6000034257554652            0.0                           
2.0000030863913425            0.6000026625361925            0.0                           
2.250002784120449             0.6000023542721448            0.0                           
2.5000019624267975            0.6000030219439284            0.0                           
2.7500031372669884            0.6000011300767101            0.0                           
3.000000690908699             0.6000033596545052            0.0                           
3.2500034667391025            0.5999997716038753            0.0                           
3.4999992938074445            0.600003671350771             0.0                           
3.750003767654568             0.5999983059537985            0.0                           
3.9999977974875924            0.6000039482914269            0.0                           
4.250004033725953             0.5999967559803097            0.0                           
4.499996224525864             0.6000041976861489            0.0                           
4.750004277318585             0.599995142976614             0.0                           
4.999994593503687             0.6000044349251618            0.0                           
5.25000451423381              0.5999934774814497            0.0                           
5.4999929105496905            0.6000046774214685            0.0                           
5.7500047627723765            0.599991756580766             0.0                           
5.999991168116084             0.6000049446480601            0.0                           
6.25000504257318              0.5999899634051122            0.0                           
[...]
POINT_DATA  4141
SCALARS Con float 1
LOOKUP_TABLE default
6.307658749843839e-06
6.750945747841662e-06
7.627573472683174e-06
8.648896362826306e-06
9.799213527862498e-06
1.1081191157788301e-05
1.2496804213653327e-05
1.404581584206402e-05
1.5725554894426875e-05
1.7530875752211244e-05
1.9454217962602442e-05
2.1485754085570705e-05
2.3613612356453013e-05
2.5824149965003545e-05
2.810222857746196e-05
3.04314237000361e-05
3.279412754915099e-05
3.517140815816391e-05
3.7547494288216414e-05
3.994324191567544e-05
4.2619714090934604e-05
4.530022542605282e-05
4.771413246244264e-05
5.000819495954469e-05
5.2298022719241696e-05
5.4576887507658884e-05
5.6848189910169535e-05
5.9118219824896884e-05
6.139751295377449e-05
6.370007645600738e-05
6.604298190953483e-05
6.844602055999006e-05
7.093139877137332e-05
7.352347114124632e-05
7.624846669569856e-05
7.913420904634479e-05
8.22097753850494e-05
8.55045919170037e-05
8.904033262531541e-05
9.272140543648404e-05
9.484116315614943e-05
6.399538157366167e-06
6.852928675121096e-06
7.747006943239204e-06
8.787081383443557e-06
9.957490690868332e-06
1.1260541270547204e-05
1.269785124247256e-05
1.4268807154065302e-05
1.5970360016935285e-05
1.7797001036577602e-05
1.974084054611703e-05
2.1791783337841938e-05
2.3937792023246705e-05
2.6165233490968965e-05
2.8459307482587206e-05
3.080462321597464e-05
3.3186085096838474e-05
3.5591735772133465e-05
3.8017368140408314e-05
4.052169397752599e-05
4.305046375609945e-05
4.553421666477128e-05
4.794402588672707e-05
5.031138380701206e-05
5.262694731336142e-05
5.491739360789779e-05
5.719250717788639e-05
5.946316645866605e-05
6.174206999122617e-05
6.404454852089547e-05
6.638856902752146e-05
6.879461078211876e-05
7.128545949381323e-05
7.388598310017073e-05
7.662288262221166e-05
7.952442117530936e-05
8.262008601774901e-05
8.593969114853455e-05
8.950515079248788e-05
9.322246274171586e-05
9.536555107006242e-05
6.3472681743791685e-06
6.800568742320014e-06
7.696690781326097e-06
8.74142437185016e-06
9.918742473070356e-06
1.1230809811947966e-05
1.2679052578830977e-05
1.4262652601234911e-05
1.597835218150108e-05
1.7820445706323268e-05
1.978088266273694e-05
2.184948201682226e-05
2.401426866632625e-05
2.6261950927310864e-05
2.857861235972968e-05
3.095074983871768e-05
3.3367199129183426e-05
3.582135771188325e-05
3.832136859756727e-05
4.080189880053121e-05
4.3173573787897636e-05
4.553730300985998e-05
4.7967697720088895e-05
5.036242274215893e-05
5.2708025467341585e-05
5.50117494260672e-05
5.728892021583628e-05
5.955336428198207e-05
6.182001238301813e-05
6.410558662038861e-05
6.64290163511375e-05
6.881150688280861e-05
7.127647635051524e-05
7.384939663204221e-05
7.655759917300316e-05
7.943003567944969e-05
8.249696005680019e-05
8.578904205581338e-05
8.932926290405013e-05
9.302412335609689e-05
9.515509994168503e-05
6.2567570142124665e-06
6.710886773083634e-06
7.610833621466432e-06
8.663302480343876e-06
9.852136622379446e-06
1.1179212867332747e-05
1.2645636552564853e-05
1.4250235634535095e-05
1.5989382962636408e-05
1.7857003526149094e-05
1.9844698321221265e-05
2.1941986840934875e-05
2.4136677521286152e-05
2.64153820883885e-05
2.876418552803964e-05
3.1169476131375604e-05
3.3618435921325156e-05
3.6099090538065815e-05
3.8581925598587056e-05
4.102964109322285e-05
4.3438770844395584e-05
4.5821305010335864e-05
4.819443833794749e-05
5.0564310441652805e-05
5.2900708063808213e-05
5.5198405437544034e-05
5.746415953129485e-05
5.971043964300998e-05
6.19522826707054e-05
6.420706506787693e-05
6.649447266902458e-05
6.883649921067661e-05
7.125737851378099e-05
7.37834644638649e-05
7.644306160245858e-05
7.926621753341245e-05
8.228443267636988e-05
8.552980299334523e-05
8.902691891187195e-05
9.268493616555325e-05
9.479796362346861e-05
6.128759454843792e-06
6.58410708361812e-06
7.489689699397307e-06
8.5532918401868e-06
9.758526646346291e-06
1.1106875716446952e-05
1.2598976517836964e-05
1.4233140552496683e-05
1.6005186849296177e-05
1.7908460793081408e-05
1.9933962200562547e-05
2.207058870393984e-05
2.4305483570815154e-05
2.6624474083970694e-05
2.9012539838827357e-05
3.14540879081711e-05
3.39327321661881e-05
3.6428067795976004e-05
3.891703414236528e-05
4.138039295663227e-05
4.38072670649902e-05
4.620170060324808e-05
4.857060064464929e-05
5.091181353811925e-05
5.32215588230146e-05
5.549397065540092e-05
5.773198963917618e-05
5.994507191375021e-05
6.214717473865571e-05
6.435554221019504e-05
6.659025514617929e-05
6.88739929781212e-05
7.123188206972052e-05
7.36913451828394e-05
7.628194215422697e-05
7.903518169298185e-05
8.198425663916467e-05
8.516321636609667e-05
8.85989696613291e-05
9.22042982311304e-05
9.429133999030919e-05
5.9620941918387065e-06
6.419227206554784e-06
7.332459466035562e-06
8.410811086594388e-06
9.637565056165748e-06
1.1013672630436515e-05
1.2539151977140577e-05
1.4211627327160899e-05
1.6026169729642276e-05
1.7975317235579382e-05
2.0049197027027418e-05
2.2235745649584994e-05
2.452101377170949e-05
2.688951436769921e-05
2.9324535551195736e-05
3.1808291892775925e-05
3.432157998743373e-05
3.68441383835889e-05
3.9356065223494913e-05
4.1840634284426556e-05
4.428804120194965e-05
4.669455773718895e-05
4.905975777548186e-05
5.1383476068908795e-05
5.36637208976089e-05
5.590052608672998e-05
5.809724021760564e-05
6.026240207095284e-05
6.240917270465417e-05
6.455459017274302e-05
6.671901785750318e-05
6.892579466346331e-05
7.120100916494708e-05
7.35733141270689e-05
7.607377033899205e-05
7.873567371189031e-05
8.159432037605643e-05
8.468622145644145e-05
8.804122910665612e-05
9.157686332825453e-05
9.362939388324891e-05
5.7555482916549455e-06
6.215146149690521e-06
7.138286539476497e-06
8.235270731362675e-06
9.488932538014617e-06
1.0899551842231357e-05
1.2466373720572391e-05
1.4186165127024917e-05
1.6053059512685833e-05
1.8058568029069137e-05
2.0191689808641008e-05
2.2439107386370466e-05
2.4785457141483407e-05
2.7213644938991367e-05
2.970515550703514e-05
3.224031675321507e-05
3.4798701775742005e-05
3.7359851357992614e-05
3.990462777337512e-05
4.241705786586455e-05
4.488551729895819e-05
4.7302976577446204e-05
4.966577165877442e-05
5.197208477803101e-05
5.4221710554953216e-05
5.6416358106045106e-05
5.856107911128783e-05
6.0664878040303795e-05
6.274100093178202e-05
6.480666313706982e-05
6.688268855822843e-05
6.899319617155141e-05
7.116536520286261e-05
7.342925213510405e-05
7.581764656218115e-05
7.83659251637388e-05
8.11118668639462e-05
8.409491483358329e-05
8.734848168098906e-05
9.079597006444311e-05
9.28045819871327e-05
5.508013452704474e-06
5.970872596596657e-06
6.90641654966434e-06
8.02618450442845e-06
9.312422812441278e-06
1.0764591623999896e-05
1.2381013646003576e-05
1.4157441709995557e-05
1.6086896079329537e-05
1.815966671619583e-05
2.0363401273731794e-05
2.2683287584717368e-05
2.5102312891237874e-05
2.7601595987034652e-05
3.016077621451757e-05
3.275849322158347e-05
3.537301366613881e-05
3.7983115051839175e-05
4.0569214207943495e-05
4.311451275251078e-05
4.5605863873246735e-05
4.8033966983863336e-05
5.039301550613188e-05
5.2680195043798065e-05
5.4895363530898664e-05
5.704131168097073e-05
5.912416004161705e-05
6.115383980717763e-05
6.31442546316874e-05
6.511324840605187e-05
6.708240684528755e-05
6.907684418122936e-05
7.112501091128684e-05
7.325855076344876e-05
7.551219541350813e-05
7.792367002967263e-05
8.053356859588763e-05
8.338470058595764e-05
8.651461672107049e-05
8.985378778633296e-05
9.180804367626855e-05
5.218732444857941e-06
5.685734419213028e-06
6.636366854511916e-06
7.78329436038739e-06
9.108016039718387e-06
1.0609025057915945e-05
1.2283585411199113e-05
1.4126297551122152e-05
1.6128923604954458e-05
1.8280363378633513e-05
2.0566724337834114e-05
2.297148741922639e-05
2.547577783962402e-05
2.805873598360351e-05
3.0698002534346895e-05
3.3370324323528354e-05
3.605231245360804e-05
3.872134362898322e-05
4.135654987904834e-05
4.393975543079612e-05
4.64561687813959e-05
4.889472679119542e-05
5.12481043212134e-05
5.351256745243452e-05
5.568787642554829e-05
5.7777320401597797e-05
5.978790247290714e-05
6.173050029802955e-05
6.36199700657696e-05
6.547511479704193e-05
6.731857548953218e-05
6.917669128802597e-05
7.107937904098606e-05
7.306004499766897e-05
7.515554789121525e-05
7.740618028797115e-05
7.985563128761551e-05
8.255044560680688e-05
8.553284606372007e-05
8.874158981617104e-05
9.062985891957532e-05
4.887589647897326e-06
5.3596410706357325e-06
6.328126474343072e-06
7.506701686417499e-06
8.875943362638959e-06
1.043323853907392e-05
1.2174675657121137e-05
1.4093600925463482e-05
1.6180405865465643e-05
1.842246625615257e-05
2.080418042020085e-05
2.3307118863313807e-05
2.5910306581772713e-05
2.8590640247537193e-05
3.1323454772069197e-05
3.408322997165504e-05
3.6844430814651e-05
3.9582445269023694e-05
4.227454167309398e-05
4.490074564169106e-05
4.744452771955529e-05
4.989324179649335e-05
5.223831782613944e-05
5.447529968444215e-05
5.660381839602948e-05
5.862758096384754e-05
6.055438522967025e-05
6.23961269241534e-05
6.416879336987027e-05
6.589238885347169e-05
6.759084705466356e-05
6.9291938351678e-05
7.102720803324978e-05
7.283196671219603e-05
7.474533473492967e-05
7.681032439207483e-05
7.907392169530262e-05
8.158669859784506e-05
8.439600312811334e-05
8.745011409597222e-05
8.92594476703153e-05
4.51546626370579e-06
4.993390203256255e-06
5.982381387958039e-06
7.197003039498009e-06
8.616732557891836e-06
1.0237725917353752e-05
1.2054820808515825e-05
1.4060052168898568e-05
1.624237536793432e-05
1.8587545276560256e-05
2.1078098425604747e-05
2.3693479298314913e-05
2.641032518087662e-05
2.920293226544365e-05
3.2043897688637256e-05
3.490492855379059e-05
3.775778004901254e-05
4.057526814145307e-05
4.3332277671678346e-05
4.600667279962877e-05
4.85800427126381e-05
5.103821032318785e-05
5.337153541379489e-05
5.55750259429802e-05
5.764833436218999e-05
5.959568954222249e-05
6.14257965181372e-05
6.315172219540037e-05
6.479077434702421e-05
6.636437321809383e-05
6.789794523172079e-05
6.942085375036771e-05
7.096639142569395e-05
7.257185081562795e-05
7.427866809041198e-05
7.613263860582418e-05
7.818414537302218e-05
8.048796118795451e-05
8.309691343671439e-05
8.59700269389667e-05
8.768607673974332e-05
4.10464810865591e-06
4.589022183839441e-06
5.6007580844402545e-06
6.855419987783828e-06
8.331219989710348e-06
1.0022995336772854e-05
1.192431366400836e-05
1.4025908663997826e-05
1.631530028812689e-05
1.8776567910506888e-05
2.139025219482872e-05
2.413343133856904e-05
2.698000321348244e-05
2.990119974013221e-05
3.286631918300217e-05
3.584366334950876e-05
3.880161226662308e-05
4.170977566396622e-05
4.454011299870742e-05
4.7267955786037026e-05
4.987282754082672e-05
5.233904200984443e-05
5.4656047137197025e-05
5.6818559214151044e-05
5.882652500765961e-05
6.0684970192851584e-05
6.240377926217923e-05
6.399745908386461e-05
6.548489535731344e-05
6.688915271270434e-05
6.823733156181776e-05
6.956050828659432e-05
7.08937782824036e-05
7.227640889370446e-05
7.375211057071309e-05
7.53694035809129e-05
7.718203133269744e-05
7.924900665070496e-05
8.162884589025796e-05
8.429250029048295e-05
8.589951389139596e-05
3.659292698269674e-06
4.15021024364641e-06
5.186078408053543e-06
6.483907587546952e-06
8.0205189157033e-06
9.78939958779324e-06
1.1782917019998587e-05
1.3990610841126261e-05
1.6398650931559086e-05
1.8989448619158773e-05
2.1741432895750002e-05
2.4629044800600456e-05
2.76230068139418e-05
3.0690889732430106e-05
3.379797306402699e-05
3.6908351999800306e-05
3.998622106547932e-05
4.2997229321465234e-05
4.5909800746764764e-05
4.869631385464574e-05
5.133403910960915e-05
5.3805810502391145e-05
5.610038181502641e-05
5.821252738663932e-05
6.014291055498443e-05
6.18978024992146e-05
6.348871047287317e-05
6.493197578679585e-05
6.624841121994142e-05
6.746299297612236e-05
6.860467559357156e-05
6.970632678483827e-05
7.080482301634985e-05
7.194130301088198e-05
7.31615791315296e-05
7.451668780690097e-05
7.606353737496292e-05
7.786523964992253e-05
7.998603427058991e-05
8.24098911824092e-05
8.38907784996423e-05
3.1859213474989603e-06
3.68266321878626e-06
4.742593834845532e-06
6.085216593423593e-06
7.685909815194437e-06
9.536876263349563e-06
1.1629472244347268e-05
1.3952285795513226e-05
1.6490342522179564e-05
1.9224480621727388e-05
2.2130928915003772e-05
2.5181177938464356e-05
2.83422215362827e-05
3.157719980945846e-05
3.484642979034819e-05
3.8108767690148134e-05
4.1323189423274325e-05
4.445045637013783e-05
4.7454725211112554e-05
5.0304941130906556e-05
5.297594531976848e-05
5.5449186704894564e-05
5.77130736434066e-05
5.9762954746829245e-05
6.16008356686526e-05
6.32348895176446e-05
6.467887069164642e-05
6.595152108307188e-05
6.707602231387962e-05
6.807958754380381e-05
6.89931963965169e-05
6.985154215965245e-05
7.069317496156282e-05
7.156087480358539e-05
7.250222540390765e-05
7.357039903691003e-05
7.482506944989348e-05
7.63331003449357e-05
7.816427343739885e-05
8.031654012473566e-05
8.165306265900091e-05
2.693902238833431e-06
3.1945013946748738e-06
4.276172581052373e-06
5.662881346918889e-06
7.328644500182741e-06
9.264572840523033e-06
1.1461370212566369e-05
1.3907104305862776e-05
1.6586033140957606e-05
1.9477637323954814e-05
2.255589656850225e-05
2.578898162319032e-05
2.9139448161121132e-05
3.256498200837767e-05
3.601969040228264e-05
3.945582097909486e-05
4.2825786562719157e-05
4.608428054798103e-05
4.919028433731382e-05
5.2108781340514603e-05
5.481203462230438e-05
5.728035382268318e-05
5.950234740665437e-05
6.147472387267713e-05
6.320172428302108e-05
6.469435005937237e-05
6.59694636408502e-05
6.70489372272753e-05
6.795888873090357e-05
6.872913270466304e-05
6.939284682458967e-05
6.998651610593211e-05
7.05501498623903e-05
7.112778595646042e-05
7.176827295295468e-05
7.252630976358641e-05
7.346370878174774e-05
7.465049090526721e-05
7.616157119271428e-05
7.800964517329188e-05
7.918273569066459e-05
2.1958328159021637e-06
2.696538137882871e-06
3.7943794008963216e-06
5.221115549326102e-06
6.949654857805582e-06
8.97037713039659e-06
1.1273919658957324e-05
1.3848510116205306e-05
1.667827889934748e-05
1.9741735782559693e-05
2.3010628532732474e-05
2.6449358749628288e-05
3.0015106629256165e-05
3.36587397574567e-05
3.732645646351469e-05
4.096205859258629e-05
4.450960635262924e-05
4.7916185374681446e-05
5.1134488077276696e-05
5.412493917470449e-05
5.6857186563046534e-05
5.931087015339899e-05
6.147568631144775e-05
6.335084933862525e-05
6.494412783086949e-05
6.627060535584056e-05
6.735139545426441e-05
6.82124316474737e-05
6.888344648316196e-05
6.939726176418631e-05
6.978938583555036e-05
7.0097972716222e-05
7.03641420451655e-05
7.063263479978526e-05
7.095283477034395e-05
7.138010893538122e-05
7.197747744456788e-05
7.281726829363106e-05
7.397883345998113e-05
7.549021450161017e-05
7.648046484160488e-05
1.7077128045397663e-06
2.2023526702642255e-06
3.3064008168222265e-06
4.764578063073926e-06
6.549182742580433e-06
8.650364598982958e-06
1.1059569877724107e-05
1.3766300389330823e-05
1.6755543857167337e-05
2.000548487312189e-05
2.348574127346726e-05
2.715639488201709e-05
3.0968014103204694e-05
3.4862776828763363e-05
3.877665963800397e-05
4.2642496321033516e-05
4.6393574977795344e-05
4.9967354219795224e-05
5.3308844020093215e-05
5.637329038909924e-05
5.912788714077457e-05
6.155246665635048e-05
6.363919727995242e-05
6.539150275825297e-05
6.682245963765082e-05
6.795294815606561e-05
6.880978989445392e-05
6.942412402252815e-05
6.983006852874389e-05
7.006385410201917e-05
7.016337193126642e-05
7.016819182942e-05
7.012001144574329e-05
7.00635294810524e-05
7.004771083886209e-05
7.012745954637932e-05
7.036570941197069e-05
7.083576052326678e-05
7.162063760047317e-05
7.276400983925179e-05
7.355227541893235e-05
1.2487901369639208e-06
1.7280429482538437e-06
2.822702556251211e-06
4.298158194534113e-06
6.126456237420463e-06
8.298163817192204e-06
1.080707419543005e-05
1.364563388755184e-05
1.6801157077172105e-05
2.025248309030809e-05
2.3967352718817393e-05
2.7900861445496974e-05
3.199531511204468e-05
3.618164852464113e-05
4.038240121160519e-05
4.451594527620909e-05
4.8501491181136266e-05
5.22641794309104e-05
5.5739618274588817e-05
5.887728492520146e-05
6.164246794286105e-05
6.401667644597388e-05
6.599669508102554e-05
6.759262572439786e-05
6.882533693783776e-05
6.972373527093918e-05
7.032219074867824e-05
7.06583628097364e-05
7.077157628431304e-05
7.070179053626346e-05
7.048917462378365e-05
7.017424685149843e-05
6.979853630737249e-05
6.940571025533454e-05
6.904315262639359e-05
6.876396223572349e-05
6.862939934716093e-05
6.871182184060805e-05
6.909586877998918e-05
6.984253990557507e-05
7.041099129401421e-05
8.403799866194591e-07
1.291352465954266e-06
2.3549857592204916e-06
3.8269669173122774e-06
5.679093167103774e-06
7.904196029875864e-06
1.0500663249833064e-05
1.3466150238828263e-05
1.6792375011004293e-05
2.0460320250799787e-05
2.4436368570422813e-05
2.8669878103912153e-05
3.309270900029802e-05
3.7621048120156085e-05
4.215949470201859e-05
4.660706924663046e-05
5.086430744340102e-05
5.484043583463455e-05
5.845954953451017e-05
6.166496432546553e-05
6.442127406803155e-05
6.671415940381255e-05
6.85482987105728e-05
6.994402061224044e-05
7.093335914905504e-05
7.15561198119269e-05
7.18564027416624e-05
7.187984391859316e-05
7.167169978643598e-05
7.127577979797131e-05
7.073414336526644e-05
7.008748552223629e-05
6.937610273161894e-05
6.864137109214327e-05
6.792769217659115e-05
6.728487854424492e-05
6.677099117274194e-05
6.645539434585328e-05
6.642136680523951e-05
6.67433216891628e-05
6.707499810249603e-05
5.076648599857014e-07
9.122088267070306e-07
1.91610730915181e-06
3.3552879613978265e-06
5.202755680225822e-06
7.456083308147218e-06
1.0120746820917499e-05
1.3202694553704437e-05
1.6701004184431503e-05
2.060110649258632e-05
2.4869068903673947e-05
2.9447784381400507e-05
3.4255870674716606e-05
3.918994036925731e-05
4.413031822495297e-05
4.894971949201441e-05
5.3523552997501465e-05
5.774027132114302e-05
6.150993711073852e-05
6.476976891172608e-05
6.748608112241683e-05
6.965282769443139e-05
7.128754884549208e-05
7.242584315788444e-05
7.311539524989426e-05
7.341046938716102e-05
7.336734385101238e-05
7.304102230251064e-05
7.248314812574271e-05
7.17410874456101e-05
7.085795317323351e-05
6.987338948872187e-05
6.882499445028178e-05
6.775023899895394e-05
6.668884686320694e-05
6.568564941146677e-05
6.47938943648444e-05
6.407912058303539e-05
6.362114217746943e-05
6.350566299771444e-05
6.358431771151734e-05
4.811670134588304e-06
7.0832995448750744e-06
1.3013219875961436e-05
2.5452997786548927e-05
3.042338082722518e-05
4.1056172784500596e-05
4.6437984724792786e-05
5.654545109707137e-05
6.0982042365004625e-05
6.811302328075633e-05
7.071652606796329e-05
7.267906220101197e-05
7.403760621477541e-05
7.484851339872411e-05
7.517912276829608e-05
7.510051530146328e-05
6.81267490565247e-05
6.674464408568165e-05
6.173039210593868e-05
6.088417449902387e-05
6.01989467342386e-05
2.837198801634037e-07
6.479310907998455e-07
1.586629361349134e-06
2.980747079828264e-06
9.811424823554706e-06
1.6697581541381266e-05
2.0855713345993453e-05
3.56675708024094e-05
5.165262397539558e-05
6.485952794339718e-05
7.468207893223477e-05
7.398790998458991e-05
7.307498168985179e-05
7.199263885892628e-05
7.078325429348016e-05
6.948358279084142e-05
6.537076907431352e-05
6.404349472609322e-05
6.280994625414355e-05
6.036228948698142e-05
1.7624842713214436e-07
4.887841612530115e-07
1.3462189520027379e-06
2.6729038947663744e-06
4.450422522837425e-06
6.688131854176992e-06
9.40948724186705e-06
1.2641159753068282e-05
1.640136087899324e-05
2.068854102686948e-05
2.547117955635464e-05
3.068029716045317e-05
3.620648749286451e-05
4.1903076510118426e-05
4.759599263942984e-05
5.309941750453873e-05
5.8234541433963126e-05
6.284776264864111e-05
6.682472613929882e-05
7.009766429039808e-05
7.264562099486348e-05
7.448861217579918e-05
7.567799115960204e-05
7.628544408659644e-05
7.639261643458516e-05
7.608262177247528e-05
7.543396826747261e-05
7.451689549737413e-05
7.339173972090138e-05
7.210889679102512e-05
7.070989718898008e-05
6.922924291221531e-05
6.769673355308303e-05
6.614019930975467e-05
6.4588559697788e-05
6.30752907204671e-05
6.164245176347601e-05
6.034531354103519e-05
5.925809783488947e-05