# vtk DataFile Version 2.0
time_10.vtk
ASCII
DATASET UNSTRUCTURED_GRID
POINTS   4141  float 
5.739957081053993e-05         4.526342932338459e-18         0.0                           
0.2500000000000026            5.436554569952025e-05         0.0                           
0.5000526694547869            -8.771759938984184e-18        0.0                           
0.75                          4.8863210972094445e-05        0.0                           
1.0000467344861903            -1.561008973075805e-17        0.0                           
1.25                          4.199060117446841e-05         0.0                           
1.5000393661722005            -7.913152026263347e-17        0.0                           
1.75                          3.3601590805697834e-05        0.0                           
2.00003046206649              1.714831818074135e-16         0.0                           
2.25                          2.368209119154737e-05         0.0                           
2.50002005181916              9.784951330106604e-18         0.0                           
2.749999999999999             1.2350410379974796e-05        0.0                           
3.000008305733662             4.4336728819576725e-17        0.0                           
3.25                          -1.0613605269501143e-16       0.0                           
3.499995323909636             1.409293345282881e-16         0.0                           
3.75                          -1.4119949077033206e-05       0.0                           
3.9999810544986976            -2.2571953845324535e-16       0.0                           
4.25                          -2.882205560924096e-05        0.0                           
4.499966133041181             -2.1715443630695258e-17       0.0                           
4.75                          -4.4154551975219795e-05       0.0                           
4.999950606401684             8.149000882391363e-17         0.0                           
5.25                          -6.00624213488247e-05         0.0                           
5.499934503463225             1.8250578099594514e-17        0.0                           
5.75                          -7.6586306959168e-05          0.0                           
5.999917744658632             -1.3424719398361803e-16       0.0                           
6.25                          -9.388591697322153e-05        0.0                           
6.499900130952794             3.038761574675111e-15         0.0                           
6.75                          5.723445469684546e-05         0.0                           
7.000055775212105             4.228827487901856e-06         0.0                           
7.250004534463918             5.2510085051088965e-05        0.0                           
7.500050680532338             5.200042393830227e-06         0.0                           
7.750005556339768             4.657732127841075e-05         0.0                           
8.000044287919911             6.305264577183266e-06         0.0                           
8.250006693246295             3.9206124369917004e-05        0.0                           
8.500036407731269             7.484345033767401e-06         0.0                           
8.750007882774076             3.029331678137561e-05         0.0                           
9.000026981015335             8.674285001255428e-06         0.0                           
9.250009063268296             1.9866680898946122e-05        0.0                           
9.500016076913235             9.818313059009934e-06         0.0                           
9.750010180779062             8.069030666778246e-06         0.0                           
10.000003855950967            1.0867975683394659e-05        0.0                           
1.1249597233373112e-05        0.29999499971421895           0.0                           
0.2499903736077355            0.3000119248402051            0.0                           
0.5000122220018955            0.29998082038619117           0.0                           
0.7499759189207803            0.3000127952366377            0.0                           
1.0000130723865512            0.29996589527937684           0.0                           
1.249960781402049             0.3000136132330792            0.0                           
1.5000138801262781            0.2999503625335152            0.0                           
1.749945059018006             0.30001441641735577           0.0                           
2.000014690053699             0.2999342568751401            0.0                           
2.249928750949202             0.3000152594180864            0.0                           
2.5000155596207505            0.29991749965152587           0.0                           
2.749911737918388             0.3000162018128026            0.0                           
3.0000165477359477            0.29989989117269733           0.0                           
3.249893782192166             0.30001729770546703           0.0                           
3.5000078739220593            0.3000552861288979            0.0                           
3.7500537213485994            0.30000905811196665           0.0                           
4.0000097080581485            0.3000502060004506            0.0                           
4.250048233582412             0.3000111065729024            0.0                           
4.500011846825736             0.30004381535935093           0.0                           
4.7500413567568165            0.3000133863721115            0.0                           
5.000014176093645             0.3000359211081721            0.0                           
5.250032941285826             0.30001577169085425           0.0                           
5.5000165684949796            0.3000264626150574            0.0                           
5.750022970070465             0.3000181393665085            0.0                           
6.0000189062085125            0.3000155026246116            0.0                           
6.250011538727144             0.3000203891104243            0.0                           
6.500021103930061             0.30000316913594977           0.0                           
6.749998787221894             0.3000225131102222            0.0                           
7.000023191444416             0.2999896699908464            0.0                           
7.249984946584403             0.300024441903287             0.0                           
7.500025027715964             0.299975220571956             0.0                           
7.74997023742929              0.300026151227162             0.0                           
8.000026695158377             0.299960062015919             0.0                           
8.249954877503288             0.3000277640250173            0.0                           
8.500028296577895             0.29994432357565487           0.0                           
8.74993895320007              0.30002937893279424           0.0                           
9.000029937646888             0.2999280115582266            0.0                           
9.249922429913783             0.3000311127948928            0.0                           
9.50003173809062              0.29991100737129606           0.0                           
9.749905147026032             0.30003308473845397           0.0                           
10.000033813338858            0.2998930698726939            0.0                           
5.591196186079702e-05         0.6000117792995397            0.0                           
0.2500126387924831            0.6000529154100351            0.0                           
0.5000512342377076            0.600014538143461             0.0                           
0.750015568334917             0.6000474462033639            0.0                           
1.0000453196626202            0.6000177594917151            0.0                           
1.2500189067702434            0.6000405645219988            0.0                           
1.5000379262445567            0.60002126867607              0.0                           
1.7500224687987551            0.6000321169477488            0.0                           
2.0000289463343943            0.600024872555048             0.0                           
2.2500260633596114            0.6000220852294972            0.0                           
2.5000184031985735            0.600028395125484             0.0                           
2.750029527608821             0.6000105631097805            0.0                           
3.000006417359975             0.6000317165343341            0.0                           
3.2500327736955588            0.5999977220437943            0.0                           
3.4999931948920096            0.6000348002419762            0.0                           
3.7500357571072724            0.5999838189136085            0.0                           
3.9999789848293066            0.6000375576949989            0.0                           
4.25003841230925              0.5999690672526662            0.0                           
4.499963998890416             0.6000400580812888            0.0                           
4.750040859837687             0.5999536691377588            0.0                           
4.999948413545597             0.6000424499356903            0.0                           
5.250043250898062             0.5999377236180169            0.0                           
5.499932285493581             0.6000448981924836            0.0                           
5.750045758336774             0.5999212010334203            0.0                           
5.999915541004824             0.6000475857825877            0.0                           
6.250048566074651             0.5999039393297125            0.0                           
[...]
POINT_DATA  4141
SCALARS Con float 1
LOOKUP_TABLE default
0.0004969468297596983
0.000536450759693037
0.0006146423226061137
0.0007059920300231957
0.00080917563284991
0.0009244905571401024
0.001052165975156468
0.0011922270607335618
0.001344474672023171
0.001508481497769007
0.0016835973366340043
0.0018689624469515735
0.0020635275600161137
0.0022660780553591217
0.0024752582581738488
0.0026895886034504126
0.002907473423080752
0.0031271856450709535
0.003347319983215284
0.0035699912056113108
0.00382050051918546
0.004072277710939685
0.004299057848390665
0.004514787132201812
0.004730845534563939
0.0049465769647471765
0.0051622733475881226
0.005378477916061579
0.00559612429298773
0.005816463424549946
0.006041025157999428
0.006271584717732029
0.006510134204088111
0.006758855941437777
0.007020096073020723
0.007296336996503221
0.007590164613460474
0.007904186197219155
0.008240299331694149
0.008589561935510396
0.008790560912138678
0.0005050735446494659
0.0005455088920138778
0.000625288851253356
0.0007183524185800515
0.0008233790506201606
0.0009406339844657702
0.001070314064734285
0.0012124102254653022
0.001366688824871693
0.0015326893224254948
0.001709731441777969
0.0018969310463349382
0.0020932240754608024
0.00229739790979459
0.00250813039134477
0.0027240430125447957
0.002943784176651849
0.0031663053655690784
0.0033912982396966124
0.0036245963214490795
0.0038610104105753526
0.00409370777396468
0.004319974630794756
0.004542963968225612
0.004761660035145239
0.004978645480160594
0.005194828741202344
0.005411199814863654
0.005628902856579125
0.005849316806418749
0.006074057811144214
0.0063049673230669056
0.006544092961772853
0.006793666354101562
0.007056078935435315
0.0073338553522467225
0.0076296208880532014
0.00794602006805968
0.008284972149095151
0.008637676487643854
0.008840890779458797
0.0005006753988147929
0.0005410842576582511
0.0006210168754844267
0.0007144642674584277
0.0008200767522105843
0.0009381089043852075
0.001068742240503276
0.0012119509956368673
0.0013674843861947205
0.0015348658219905185
0.0017134023619068911
0.0019022044612324698
0.002100216897309494
0.002306263164688346
0.002519109997335485
0.0027375657895260287
0.002960665066487022
0.0031878794384257365
0.0034201016213928673
0.0036510228643371373
0.003872102988364629
0.004093186109936442
0.004321486461838895
0.0045471443587889356
0.004768839907507775
0.004987211194375591
0.0052036947794183155
0.005419564187512991
0.005636180128308751
0.005855057426853695
0.006077905850018163
0.006306638255401575
0.006543364119158503
0.006790374830070555
0.007050124095169268
0.0073252043543131085
0.00761831622363521
0.007932187147285172
0.008268834744401841
0.008619484802808308
0.008821570091440653
0.0004930384526909973
0.0005334929709181126
0.0006137131966049527
0.0007077939143898403
0.0008143785607500518
0.0009336994294064018
0.0010659121936330426
0.0012109620784796753
0.001368567673948352
0.0015382216955703509
0.0017192024307423957
0.0019105961489426714
0.0021113314468596818
0.0023202270603647967
0.002536054306575425
0.002757614713173997
0.002983783338577981
0.003213506815517107
0.003444005295732385
0.0036717475793707796
0.003896440337021396
0.004119324956086016
0.004342137251962433
0.0045654590398749835
0.004786348996723765
0.00500425642850091
0.005219771007362368
0.005434026550793143
0.0056483896201612125
0.005864436328808696
0.006083949036573733
0.006308916719677696
0.006541528620820901
0.006784162209274733
0.007039366453975954
0.007309840772020043
0.007598406340685569
0.007907926276847235
0.008240567382551241
0.008587793545875516
0.008788211092875664
0.0004822433013181295
0.0005227646480862859
0.0006034104261899819
0.0006984026903841412
0.0008063711563664493
0.0009275173835454876
0.0010619591966253444
0.001209599163199276
0.0013701095484362697
0.0015429340221565875
0.0017272996807241715
0.0019222392862181235
0.0021266234214404964
0.0023392006609440352
0.002558639993540494
0.002783553741812779
0.0030124707712354533
0.003243517347725191
0.003474551231552509
0.0037037827615546484
0.003930232184346023
0.004154341896045457
0.004376813870547297
0.004597460443453223
0.004815895199354385
0.005031505647068298
0.005244510715946426
0.005455743526691318
0.005666459599687512
0.005878217921495066
0.0060928366617725915
0.0063123704263834705
0.006539094912143552
0.006775492036228434
0.007024233410608974
0.007288160634795637
0.007570258306323883
0.007873575974882058
0.008200498467377002
0.008542833837602053
0.008740858432210693
0.0004681953678133501
0.000508820117113451
0.000590045040017194
0.0006862442632991308
0.0007960268175559034
0.0009195526636947461
0.0010568893227849018
0.001207882302511103
0.0013721408327853797
0.0015490396503260821
0.0017377302512379793
0.0019371609781236926
0.002146104523410776
0.0023631892338236804
0.0025869258391888667
0.002815717894850949
0.0030478236442673897
0.0032813881084729725
0.0035145782695900265
0.0037458578942437225
0.00397434138298146
0.004199712720336145
0.004421955884086849
0.004641059445426811
0.004856814390352328
0.005069179007514805
0.0052784088388365125
0.005485243722673445
0.005690855387315831
0.005896777784489267
0.006104853083546578
0.006317198254513268
0.006536182016781975
0.0067644064998236084
0.007004690045026802
0.007260048631698971
0.0075336710269590735
0.00782884412630406
0.008148235916506302
0.008484099833637541
0.008678934583099545
0.00045080134660861835
0.0004915743015014415
0.0005735509039737921
0.0006712732861942855
0.0007833213809696086
0.0009098021807181715
0.0010507201754899854
0.0012058495788340217
0.001374720268135262
0.001556618917395122
0.0017505987518440012
0.001955497171446757
0.0021699597988054805
0.0023924678797459784
0.0026213649211158426
0.002854877687660223
0.0030911517252638398
0.0033283179354775413
0.003564622173455922
0.0037985993558088
0.004029185569642873
0.00425573834911302
0.0044779190707284425
0.0046955472249094014
0.004908576283820705
0.005117122259483777
0.005321601566494585
0.005522793838985587
0.005721873610174891
0.005920386647283837
0.006120216292817442
0.00632355324052191
0.006532871967272473
0.006750911924004214
0.006980661172243619
0.0072253399971845215
0.007488379411738231
0.007773351398505578
0.008083266182396307
0.008410926334273263
0.008601689632197682
0.0004299815414645968
0.0004709556851114832
0.0005538737285200075
0.000653455644274188
0.0007682419740783115
0.0008982749077538702
0.0010434836332921162
0.0012035579337268541
0.001377933654314166
0.0015657925451975328
0.0017660702252655209
0.0019774719566691013
0.0021984955575040386
0.0024274602582556224
0.0026625404642426995
0.002901808095285944
0.003143289351047626
0.0033850468189181625
0.0036252851878427776
0.0038624586462519318
0.0040953511756199835
0.004323093931286489
0.004545131943260771
0.004761176478396427
0.004971175574300877
0.005175339195753025
0.005374179138791526
0.005568557606598947
0.005759706710345589
0.005949227774640485
0.006139074488453791
0.006331532321364293
0.0065291996243438686
0.006734972006667787
0.006952029317964681
0.007183823442848224
0.007434061948839903
0.007706644926981062
0.008004981076925535
0.008322533935231498
0.00850824256414893
0.0004056922683087252
0.0004469253678327794
0.0005309865635045652
0.0006327795254487518
0.0007507935090932149
0.0008849939931200897
0.0010352237572047295
0.0012010770458482129
0.0013818835777227863
0.001576706243223374
0.0017843469138057115
0.002003360822663721
0.0022320799443896807
0.002468645561768122
0.0027110508817062328
0.0029571953240301024
0.0032049532792155933
0.003452257213549176
0.0036971892298192943
0.003938067973262945
0.004173512785900434
0.004402475809413566
0.004624243905056457
0.004838425822992686
0.005044945449212634
0.005244047112686905
0.005436315483011832
0.0056226946258616725
0.005804500751116215
0.005983422330290073
0.006161511633233596
0.006341171953807126
0.006525145093356441
0.006716501283017216
0.0069186318962453025
0.007135243715436248
0.007370350058156312
0.007628216953354616
0.007912704238693771
0.00821805239936219
0.008397605249894613
0.00037795226546310026
0.00041950060093015086
0.0005049075787108404
0.0006092671475784947
0.000731004190251188
0.0008699961180608362
0.0010259902784914925
0.0011984773270532448
0.0013866721727018494
0.0015895081258944317
0.001805639610827815
0.0020334548784592477
0.002271100145562859
0.0025165162111316993
0.002767488260840811
0.0030217092166335423
0.0032768557490210517
0.0035306737249258305
0.003781066307917709
0.0040261748899014915
0.004264443288884708
0.004494659289197462
0.004715974818071538
0.004927912112980955
0.0051303645205524225
0.0053235991572323366
0.005508261707927844
0.005685381796035655
0.0058563747146513695
0.006023038539644117
0.006187547176694878
0.006352442260973708
0.006520626418364405
0.006695359835381476
0.006880260568320704
0.0070793076248939725
0.007296842323272191
0.007537527240614163
0.00780571971419975
0.008096555735760015
0.008268720823089335
0.0003468742092385821
0.000388782246764644
0.00047572001337972095
0.0005829866210999805
0.0007089291858074052
0.0008533271903505453
0.0010158268959932755
0.001195811680063639
0.001392377402832138
0.0016043206976428693
0.001830136760303875
0.0020680292201988074
0.0023159344471284267
0.0025715617973868536
0.0028324501856153736
0.003096039965541441
0.0033597572843099667
0.0036211058828782314
0.0038777592623767906
0.004127645110342494
0.00436901471612022
0.004600493146116993
0.004821110057338025
0.00503031462978935
0.005227980034361201
0.0054144020080613454
0.0055902946913096935
0.0057567845234866855
0.005915402669910006
0.006068076355055833
0.006217120539703582
0.00636523184992834
0.006515486728815729
0.006671345112785236
0.006836659911492232
0.007015691303082577
0.0072131213680105034
0.007434029818269196
0.007683308515357573
0.007957107518239743
0.00812051357257015
0.00031270112324630625
0.0003549859342825027
0.0004435935650260364
0.0005540629919768943
0.0006846513007559696
0.0008350331315106869
0.0010047531502118446
0.001193089956071471
0.0013990220670915706
0.0016212068140664857
0.0018579702880216176
0.002107312301714876
0.002366929759963367
0.002634260404629767
0.0029065469654005237
0.003180919583196816
0.0034544920553646174
0.0037244653809084195
0.003988230653592482
0.004243463166250187
0.004488200793401188
0.004720902401699905
0.0049404852127823366
0.0051463431718618835
0.005338350126414868
0.005516852415055768
0.005682654916589835
0.0058370039143061225
0.0059815694313602764
0.006118429404962625
0.006250057917389835
0.006379319670471304
0.006509472349976518
0.006644177941512904
0.006787523017911134
0.006944046808538769
0.007118772529694236
0.0073172043880982505
0.007544792923231385
0.007798817458322783
0.007951952027705099
0.0002758466882548788
0.00031847578413350203
0.000408805930735307
0.0005226869818410728
0.0006582770916662358
0.0008151441166195887
0.0009927382461087173
0.0011902444979098301
0.001406533879224243
0.0016401277512515585
0.0018891756263131325
0.002151452168956947
0.002424378214817262
0.002705068399479566
0.0029904051663919885
0.003277135819275647
0.003561986364719882
0.0038417836052210804
0.004113575720177873
0.004374741816377986
0.004623082560046703
0.004856886911822188
0.005074973277696798
0.005276706672633252
0.0054619957989537615
0.0056312753446626646
0.005785479146437699
0.005926009507031156
0.006054707427570818
0.006173827647277994
0.006286021879512926
0.0063943327112581695
0.006502200038873072
0.006613480886963348
0.006732482464909994
0.006864006995588571
0.007013403679989367
0.007186591930140883
0.007389588441395857
0.007620909334459441
0.007762125522075903
0.00023693717969649743
0.0002797984218527059
0.0003717622961201688
0.0004891194081794354
0.0006299265359968531
0.0007936505776275492
0.0009796651504190802
0.0011870849874123274
0.001414694677835885
0.0016608912309783732
0.0019236435100394318
0.002200476941337739
0.0024884904024869577
0.002784408831983097
0.0030846710373937203
0.003385547853173984
0.003683281877260923
0.00397423715487011
0.004255045937201743
0.004522740220291524
0.004774858216611744
0.005009519523421332
0.005225467053181225
0.005422077745489162
0.005599347264668554
0.005757855781257518
0.005898722702080218
0.006023557996351471
0.00613441677476306
0.00623376278136812
0.006324444916667895
0.006409689977113165
0.006493113387921516
0.0065787488381973385
0.006671096548642777
0.0067751885638399284
0.006896665916508541
0.007041834006776794
0.007217262670008968
0.00742279974496193
0.007550334105670142
0.00019685048363873576
0.00023971320571425955
0.0003330094329363284
0.0004536886740417187
0.0005997146089476842
0.0007704698021664786
0.0009652839454839673
0.0011832414431598034
0.0014230774033938923
0.001683087989174847
0.00196106234844098
0.0022542489654505753
0.002559366135458125
0.002872661503516147
0.003190019831060245
0.0035071119233980813
0.0038195722638212615
0.0041231888899396
0.004414087605677713
0.004688893814463477
0.004944858900580518
0.0051799434156156
0.005392855285270024
0.005583046707355123
0.00575067757667735
0.005896555830903673
0.00602206574172137
0.006129094792285241
0.0062199680065707945
0.006297396865862801
0.006364447798422754
0.006424533495338776
0.006481428831948039
0.006539312071972583
0.006602831135776848
0.006677193586149376
0.00676827547702345
0.006882715125029169
0.0070275999626906865
0.00720418623876516
0.007316190082280942
0.00015674506201187723
0.00019921226700073857
0.00029323959723431456
0.00041677914167001853
0.0005677242365057173
0.0007454037074892297
0.0009491549691185861
0.0011780953354215058
0.0014309706203168003
0.0017060167826448347
0.002000851580105881
0.0023124141234340716
0.0026369658645026424
0.0029701600712213412
0.0033071786178351893
0.003642926053476368
0.003972262663984845
0.004290252664303726
0.004592401636125484
0.004874859548309375
0.005134571646283074
0.005369367684450508
0.005577988850737278
0.005760059463247295
0.005916016148690253
0.006047009982379682
0.006154797490497075
0.006241634721737382
0.0063101858740808175
0.006363454784767858
0.00640474465574233
0.006437648790413064
0.00646607355326064
0.006494293515374045
0.006527038458340468
0.006569611872240474
0.0066280382257374705
0.006709210022281038
0.006820669513720859
0.006965141673033098
0.007059729993028547
0.00011806600859151391
0.00015952032355709444
0.0002532795262693841
0.00037880901559375195
0.0005339740283450713
0.0007180913616819435
0.0009305834286460867
0.00117070060625631
0.0014372927368456296
0.0017286003021043759
0.0020420888890555267
0.0023743501051539384
0.0027210883069236163
0.0030772039449349906
0.0034369726191985236
0.0037943054450532334
0.004143063735238612
0.004477392202505649
0.004792032204312163
0.005082580618648677
0.005345669879856278
0.005579057990003234
0.005781630956198136
0.005953331307970977
0.00609503362312653
0.006208390661939501
0.0062956726649068895
0.006359618742585477
0.006403314186752078
0.0064301027918308275
0.006443538718361465
0.00644737945966668
0.00644561936669032
0.00644256236608778
0.006442932665930171
0.006452023176215335
0.00647588411483875
0.006521534945771191
0.0065969015698854805
0.006706208953810908
0.006781521484644115
8.251925287901048e-05
0.00012206314427173868
0.00021405580651280497
0.00034020910752665637
0.0004983901119335579
0.0006879562992813523
0.000908548486163018
0.0011597006214820401
0.0014405029883242707
0.0017492987800280368
0.0020834377033493306
0.0024391204263909364
0.0028113624660037377
0.003194095685736581
0.003580408419313464
0.003962903817043253
0.004334135764116148
0.0046870674515544905
0.005015493514192154
0.0053143745212695295
0.005580049597360189
0.005810315448544664
0.006004381189453201
0.006162724994762214
0.006286887107305452
0.006379235346921284
0.006442734707021405
0.006480745267274406
0.006496864056618661
0.006494818991485487
0.006478417089060109
0.0064515455017679765
0.006418221921925699
0.006382690697212682
0.006349561558686107
0.006323989979322782
0.006311899001565072
0.006320249644571353
0.00635715320361497
0.006428498936092289
0.006482803810070575
5.19537374344604e-05
8.838213104630263e-05
0.00017658331577217692
0.0003014194908861698
0.0004607569026996063
0.0006541457729088778
0.000881639444505928
0.0011432583491093622
0.0014385263202598112
0.001766035852805226
0.0021230868239136692
0.0025054447935171343
0.002907265599364697
0.0033212180900196514
0.00373881172614904
0.004150900693092869
0.004548302641863322
0.004922444747837488
0.005265944437525504
0.0055730457454259774
0.0058398641783820515
0.006064430113285866
0.006246556029526551
0.006387575287188947
0.0064900103744445084
0.006557224601209913
0.006593101034790695
0.006601777375286857
0.00658745223228784
0.0065542667550693105
0.006506258669606397
0.0064473816468158755
0.006381582549352465
0.0063129293277118794
0.006245785194198139
0.006185025656045108
0.006136299447902701
0.006106310075624357
0.006103061894301397
0.006133730420538049
0.0061653844067790205
2.8471962346874887e-05
6.014867219955631e-05
0.0001419446228216041
0.0002627985061806911
0.0004206960171485576
0.0006155812043339786
0.0008481371221782389
0.0011191458049148906
0.001428837311222819
0.0017762772027953395
0.002158835421405518
0.0025718103816003354
0.00300828242172139
0.003459256173436576
0.003914111741464931
0.0043613283947895685
0.004789383279662306
0.005187684205305472
0.0055473843164777804
0.005861955265225044
0.006127452801178862
0.006342475924811175
0.006507876308153247
0.006626306814521801
0.006701703403352824
0.006738781390430678
0.006742602292848234
0.006718242225640912
0.0066705711391769435
0.006604137595530987
0.00652314595773794
0.006431510533623769
0.006332972824071537
0.006231271611303419
0.006130360245295947
0.006034669900737238
0.00594941757780412
0.005880968050121081
0.005837015897242655
0.005825800368794246
0.005833235113356343
0.00038801505414298775
0.0005835586274204705
0.0011014396899817782
0.002207767638356996
0.0026555454799996785
0.0036239321266135537
0.004119930954975008
0.005064214626174396
0.005485280865604279
0.006174552029552468
0.0064322514040565226
0.006630598176958304
0.006772094118211098
0.006861247537358045
0.006903818800419436
0.0069061415945575215
0.006270293054046966
0.006138607091150271
0.00565821415930588
0.00557700718528999
0.005511198380320021
1.4280976609287062e-05
4.169519356870051e-05
0.00011664944744811295
0.00023253853140490482
0.0008207637312794892
0.0014267543389021697
0.0017963849894042933
0.003131338162955976
0.004604809627280204
0.005857727307903893
0.006874583906249837
0.00681517222671296
0.0067333735613423155
0.006634013252398544
0.006521301117049526
0.006398939506706405
0.006007269616006176
0.005880118829203233
0.005761806526648087
0.0055269128065313766
8.556818956335595e-06
3.093768789471265e-05
9.801762781625607e-05
0.00020730934320176923
0.00035743695493467293
0.000549321583362133
0.0007852239883819652
0.0010678068977848759
0.001399103702528878
0.0017795042709085299
0.0022068161333693975
0.0026755391954073173
0.0031765137012785246
0.003697089093225719
0.004221885640959732
0.004734092156865696
0.005217098106726291
0.005656152140151367
0.006039723284518279
0.006360324059722834
0.006614705834374723
0.006803489820701918
0.00693040503943124
0.00700134109488698
0.0070234026465224855
0.007004095519723044
0.0069507122599378815
0.006869931319762369
0.006767610035695398
0.006648734423475863
0.006517485902985944
0.006377390581651238
0.006231525777527251
0.006082769149116036
0.005934085653990802
0.005788854934738491
0.0056512532217501
0.005526689523527182
0.0054223453212140045
0.005347214821663063
0.005317131816446084
6.419205567582493e-06
2.4053453409060166e-05
8.360926184344435e-05
0.00018642369551605546
0.0003312575499976305
0.0005194293987852762
0.0007539583698555839
0.0010384419669585221
0.001375880804685646
0.0017674707399172329
0.0022114543708662625
0.0027021887986758823
0.0032296436516994196
0.0037795375715042718
0.004334231509840991
0.004874325033214193
0.0053806972350898255
0.005836579423791747
0.006229221852133837
0.006550838944104163
0.006798732919383908
0.0069747095021796225
0.007084035381653824
0.007134220519084143
0.007133861174436715
0.007091693518001146
0.007015920681295102
0.006913810262330578
0.00679152088480059
0.006654102366490975
0.006505615953744042