# vtk DataFile Version 2.0
time_10.vtk
ASCII
DATASET UNSTRUCTURED_GRID
POINTS   4141  float 
4.644380985824372e-06         1.2135921488642993e-17        0.0                           
0.25000000000000094           4.387608018036904e-06         0.0                           
0.5000042456156437            4.1483351815194145e-18        0.0                           
0.7499999999999983            3.929983411701355e-06         0.0                           
1.0000037548691327            -1.1951554187456473e-16       0.0                           
1.25                          3.3672457636071433e-06        0.0                           
1.5000031539998384            7.348210453693073e-17         0.0                           
1.75                          2.687782962338473e-06         0.0                           
2.0000024348601224            7.067632506560775e-16         0.0                           
2.25                          1.8904518169604713e-06        0.0                           
2.5000015997663096            -1.1429409232360974e-15       0.0                           
2.75                          9.845265585472767e-07         0.0                           
3.000000661999854             1.393278202837586e-17         0.0                           
3.25                          -1.241337947423881e-16        0.0                           
3.499999630188441             -4.940490660050104e-17        0.0                           
3.7499999999999996            -1.1167113261440033e-06       0.0                           
3.9999985020332787            -9.948931899766691e-17        0.0                           
4.25                          -2.277190999558038e-06        0.0                           
4.499997325369176             3.471760052453674e-17         0.0                           
4.75                          -3.483872874738151e-06        0.0                           
4.999996104634767             3.248560820034996e-15         0.0                           
5.25                          -4.732062199804914e-06        0.0                           
5.499994842407932             -1.0705179847600635e-17       0.0                           
5.75                          -6.024725792408145e-06        0.0                           
5.999993532624271             -1.0084542881942132e-16       0.0                           
6.249999999999999             -7.374321601791208e-06        0.0                           
6.499992159675275             -2.310603286500243e-15        0.0                           
6.75                          4.631953856453189e-06         0.0                           
7.000004507949678             3.579925626823308e-07         0.0                           
7.250000381119015             4.233643723860599e-06         0.0                           
7.500004081464404             4.316816179364979e-07         0.0                           
7.7500004588295415            3.7430747266521936e-06        0.0                           
8.000003555614269             5.160118136656135e-07         0.0                           
8.250000545677352             3.141985175644934e-06         0.0                           
8.500002915339548             6.062108033659347e-07         0.0                           
8.750000636705545             2.422174573028328e-06         0.0                           
9.000002155949154             6.972666328521972e-07         0.0                           
9.250000727006944             1.5858290395705507e-06        0.0                           
9.500001282902373             7.846646114444199e-07         0.0                           
9.750000812300215             6.442356225201083e-07         0.0                           
10.000000308966264            8.645763959682726e-07         0.0                           
8.933766466377768e-07         0.29999960596717756           0.0                           
0.24999923960021764           0.3000009442810679            0.0                           
0.5000009666683849            0.2999984843463273            0.0                           
0.7499980974350919            0.30000100968656057           0.0                           
1.0000010304057203            0.299997307379618             0.0                           
1.2499969049130648            0.30000107070670984           0.0                           
1.5000010905433947            0.2999960861795229            0.0                           
1.7499956700477597            0.3000011303502129            0.0                           
2.0000011506580475            0.29999482374874414           0.0                           
2.249994393020506             0.30000119297079747           0.0                           
2.500001215335177             0.2999935140885553            0.0                           
2.749993064600074             0.30000126334859467           0.0                           
3.0000012893177623            0.2999921415432971            0.0                           
3.249991666074268             0.3000013458654747            0.0                           
3.500000671916726             0.3000044711640482            0.0                           
3.7500043391874924            0.300000761377981             0.0                           
4.000000810697934             0.3000040458339077            0.0                           
4.250003882723635             0.30000091716673055           0.0                           
4.50000097365705              0.30000352015233517           0.0                           
4.750003319675449             0.30000109132855746           0.0                           
5.000001151748939             0.30000287879477056           0.0                           
5.250002638171241             0.3000012738691149            0.0                           
5.500001334846018             0.30000211695570783           0.0                           
5.750001836866629             0.3000014549787666            0.0                           
6.000001513557633             0.30000123965130787           0.0                           
6.25000092341668              0.3000016266432241            0.0                           
6.500001681023558             0.30000025730088165           0.0                           
6.749999909277403             0.30000178780084513           0.0                           
7.000001839017469             0.299999186542337             0.0                           
7.249998812822888             0.3000019332213161            0.0                           
7.500001977218375             0.2999980446251546            0.0                           
7.749997651662236             0.3000020612942373            0.0                           
8.00000210185779              0.2999968504762437            0.0                           
8.24999644287792              0.30000218135113665           0.0                           
8.50000222088479              0.29999561439480277           0.0                           
8.749995193449463             0.30000230119589616           0.0                           
9.000002342684006             0.29999433707750356           0.0                           
9.249993900844569             0.3000024301393913            0.0                           
9.500002476820562             0.2999930093400804            0.0                           
9.749992552538268             0.300002577761365             0.0                           
10.00000263261202             0.2999916122312301            0.0                           
4.5324141904281565e-06        0.6000010053753144            0.0                           
0.250001070197483             0.6000042786084432            0.0                           
0.5000041377998192            0.6000012141468007            0.0                           
0.7500012925104009            0.6000038236224555            0.0                           
1.00000364869299              0.6000014596210294            0.0                           
1.250001547282697             0.6000032602170183            0.0                           
1.5000030459036164            0.600001727954364             0.0                           
1.7500018198099616            0.6000025762323467            0.0                           
2.0000023209103315            0.6000020037844203            0.0                           
2.2500020948789015            0.6000017702649225            0.0                           
2.5000014756229767            0.6000022730636145            0.0                           
2.750002359467417             0.6000008498821208            0.0                           
3.0000005197846407            0.6000025260874817            0.0                           
3.2500026063186156            0.5999998288941334            0.0                           
3.4999994698543975            0.600002759619649             0.0                           
3.7500028317732146            0.5999987276033962            0.0                           
3.9999983455842534            0.6000029671113623            0.0                           
4.25000303112096              0.5999975631331861            0.0                           
4.499997163890052             0.6000031539627725            0.0                           
4.750003213624128             0.5999963514376381            0.0                           
4.999995938694421             0.6000033317030935            0.0                           
5.25000339112057              0.5999951004142513            0.0                           
5.499994674590901             0.600003513378619             0.0                           
5.750003577322061             0.5999938078816509            0.0                           
5.999993365926323             0.6000037135800047            0.0                           
6.250003786943806             0.599992461202306             0.0                           
[...]
POINT_DATA  4141
SCALARS Con float 1
LOOKUP_TABLE default
3.5963961372643953e-06
3.846839061335101e-06
4.34208864982221e-06
4.918814768836273e-06
5.56808113438086e-06
6.291346286657522e-06
7.0896863279062305e-06
7.962936677331978e-06
8.90956738886325e-06
9.926661610330255e-06
1.1009949671665255e-05
1.2153892313501423e-05
1.3351805670513112e-05
1.4596015188095228e-05
1.5878009885391845e-05
1.718855966897051e-05
1.8517772778021315e-05
1.9855016249420357e-05
2.119143923882489e-05
2.253877056992003e-05
2.404359081442764e-05
2.5550682921759695e-05
2.6907858886151015e-05
2.8197526156988243e-05
2.9484716064364044e-05
3.0765649572999374e-05
3.204224607513943e-05
3.331804328161857e-05
3.459896645487293e-05
3.589288800112721e-05
3.720940161583935e-05
3.8559628602362106e-05
3.9956044246508294e-05
4.141232970074883e-05
4.2943217389128534e-05
4.456433371653404e-05
4.629200683104732e-05
4.814275886810243e-05
5.0128753960354665e-05
5.2196279983462094e-05
5.3386724975011014e-05
3.6485256605427213e-06
3.904661421018081e-06
4.409749364317258e-06
4.9970395973745784e-06
5.657618154372426e-06
6.392740822664785e-06
7.203283038046354e-06
8.088868525797691e-06
9.047755287850585e-06
1.007682285161224e-05
1.1171616937533891e-05
1.2326448365965295e-05
1.3534541002955214e-05
1.4788226196301201e-05
1.6079183728062437e-05
1.7398764806990896e-05
1.8738489759630382e-05
2.009164532362391e-05
2.1455871615427746e-05
2.2864190446772695e-05
2.4286122744732233e-05
2.5682528766327482e-05
2.7037314082350475e-05
2.8368159920480426e-05
2.9669790623483373e-05
3.0957213810277834e-05
3.223593356904904e-05
3.351206872416216e-05
3.4792758255042313e-05
3.608661985495208e-05
3.7403749841386676e-05
3.875565557906474e-05
4.015513772531728e-05
4.1616165744759154e-05
4.3153736818236095e-05
4.478372382836455e-05
4.652268490867801e-05
4.838735934884574e-05
5.039004557855613e-05
5.2477924061298047e-05
5.368146792115252e-05
3.618982029552319e-06
3.875075161863676e-06
4.381328217650731e-06
4.9712570208298844e-06
5.635739359582795e-06
6.375950802995522e-06
7.192657922688552e-06
8.085368792735912e-06
9.052223812403392e-06
1.0089991582073364e-05
1.119412730319578e-05
1.2358893372441973e-05
1.3577548749393662e-05
1.4842616752252091e-05
1.6146273913771423e-05
1.7480932577875257e-05
1.8840322890612308e-05
2.022074039858659e-05
2.1626775372868134e-05
2.3021691654679414e-05
2.435527848633384e-05
2.5684307297989728e-05
2.7050658293947667e-05
2.839685752505872e-05
2.9715359310795777e-05
3.1010235332455715e-05
3.229010486281711e-05
3.356274247401608e-05
3.483654237617324e-05
3.6120903159756645e-05
3.7426463172711824e-05
3.876513674979597e-05
4.01500811328251e-05
4.1595604331931324e-05
4.311705757522148e-05
4.4730700733364224e-05
4.645352239026918e-05
4.830274230372699e-05
5.0291257977030685e-05
5.236653221075441e-05
5.356327860568527e-05
3.5678228792362147e-06
3.824396593070603e-06
4.332829019173998e-06
4.927138887899644e-06
5.598128944414682e-06
6.346811024610402e-06
7.173770417279813e-06
8.078315274564259e-06
9.058377698653729e-06
1.0110518190837058e-05
1.1229995713754118e-05
1.2410904349613568e-05
1.3646381248249876e-05
1.4928895415880309e-05
1.6250624140854104e-05
1.7603918616208885e-05
1.8981579115699907e-05
2.0376882373211633e-05
2.1773242559086853e-05
2.314970946284292e-05
2.450435601393324e-05
2.584392543290683e-05
2.7178099603949725e-05
2.8510327146152853e-05
2.9823643039194177e-05
3.1115121596511454e-05
3.23885663742528e-05
3.3650989792765386e-05
3.4910846156032424e-05
3.6177902395948455e-05
3.7463221642840004e-05
3.877916218529195e-05
4.01393386714948e-05
4.155855551253398e-05
4.305271048087541e-05
4.463867857101729e-05
4.633414843057431e-05
4.8157140753785255e-05
5.0121456278911955e-05
5.217604896973911e-05
5.3362721330417816e-05
3.4954707950882226e-06
3.7527499989890787e-06
4.264392822589482e-06
4.865008270024101e-06
5.545266194263811e-06
6.30595412100459e-06
7.147392680983719e-06
8.06859859998732e-06
9.06719169298746e-06
1.0139406143352196e-05
1.1280162616997364e-05
1.2483205337145962e-05
1.3741297508639223e-05
1.504646718408691e-05
1.6390270391361252e-05
1.776394471487875e-05
1.9158285083213684e-05
2.0561829261364585e-05
2.1961626582943176e-05
2.3346877598767982e-05
2.471148276264397e-05
2.6057729875387032e-05
2.7389508435206878e-05
2.8705618782682954e-05
3.0003945240457003e-05
3.1281201514271105e-05
3.2539049023530415e-05
3.378280828767646e-05
3.5020327498561825e-05
3.626129945482507e-05
3.751701032674984e-05
3.88002031361524e-05
4.012499505215344e-05
4.150679059797062e-05
4.296219268847517e-05
4.450889703878799e-05
4.616554242734694e-05
4.795124678126299e-05
4.988111254151526e-05
5.190612794925782e-05
5.307821522862694e-05
3.401252055391009e-06
3.6595632748462567e-06
4.175562920491744e-06
4.784532146867079e-06
5.476950458392195e-06
6.253304560913694e-06
7.113564925406357e-06
8.056360517897357e-06
9.078889593934067e-06
1.0176931871005307e-05
1.1344917063161844e-05
1.2576048840067385e-05
1.3862476410596942e-05
1.519548902231836e-05
1.6565692130497675e-05
1.7963091512089008e-05
1.9376899305484392e-05
2.0795736161257563e-05
2.2208427811663277e-05
2.3605586911328404e-05
2.49817173848641e-05
2.6334736748366256e-05
2.7664418084289663e-05
2.8970678669442126e-05
3.0252410234365115e-05
3.150964107509055e-05
3.2744264282201704e-05
3.39610841903635e-05
3.516750329597446e-05
3.637309944757618e-05
3.7589317989713414e-05
3.8829273153898945e-05
4.010762283277887e-05
4.1440462361087096e-05
4.284523824455778e-05
4.434064987945785e-05
4.5946517366495575e-05
4.768334000860233e-05
4.9567873033167374e-05
5.155376488266074e-05
5.270648131376438e-05
3.284472667309824e-06
3.5442063464896154e-06
4.065848730479175e-06
4.685371415669577e-06
5.392995349520808e-06
6.188826950777409e-06
7.072399739046734e-06
8.041858921487176e-06
9.093874985020654e-06
1.0223649244836026e-05
1.142497709626893e-05
1.2690357216088075e-05
1.4011143407149727e-05
1.537772253734048e-05
1.6779686471424857e-05
1.8205981550157836e-05
1.964513319641159e-05
2.1085652262442282e-05
2.2516794520853286e-05
2.3929596757015735e-05
2.5317540343665057e-05
2.667668826405143e-05
2.8004995427547846e-05
2.9301452367498122e-05
3.056595590640334e-05
3.1799477301140037e-05
3.300486628981894e-05
3.41871909546413e-05
3.535390228620803e-05
3.6514679294715885e-05
3.768122630595835e-05
3.8867096372828255e-05
4.008756021678792e-05
4.135950237299101e-05
4.270134064885042e-05
4.4132942251159994e-05
4.567552204714726e-05
4.73512254095463e-05
4.9178806849236345e-05
5.1115216538727556e-05
5.224328197966776e-05
3.1444942911769023e-06
3.4061080511301004e-06
3.934814636135068e-06
4.567242652908913e-06
5.293276446888498e-06
6.112557630319489e-06
7.024098781194995e-06
8.025473710929783e-06
9.112725319532351e-06
1.028036843363719e-05
1.1521438018520187e-05
1.2827592770587733e-05
1.4189259830046743e-05
1.5595821447873334e-05
1.7035833168770756e-05
1.8497293300957004e-05
1.9967993779049134e-05
2.1436017611837508e-05
2.2890371298352872e-05
2.4321628220486086e-05
2.5722414982818178e-05
2.7087520284837447e-05
2.8413695383625127e-05
2.9699373211850257e-05
3.094448755857987e-05
3.215061908769407e-05
3.332121955570974e-05
3.4461879471389955e-05
3.5580419537418906e-05
3.6686873365749764e-05
3.7793373617942196e-05
3.891403402100461e-05
4.006483974006767e-05
4.126356696956182e-05
4.252972464033081e-05
4.388449902370543e-05
4.535068544902051e-05
4.695232006337342e-05
4.8710479562117915e-05
5.058608264850715e-05
5.168363754730914e-05
2.9808729015379324e-06
3.2448739294597807e-06
3.7821753586240936e-06
4.429989310090646e-06
5.177772094434912e-06
6.024617954902223e-06
6.968942114188307e-06
8.00766840792758e-06
9.136131964275035e-06
1.0348065159556265e-05
1.1635637437241477e-05
1.2989547696068232e-05
1.4399177223636113e-05
1.5852796421468376e-05
1.733783852740004e-05
1.8841237881479432e-05
2.0349857752012902e-05
2.1850994161808512e-05
2.333293265967127e-05
2.4785473790100883e-05
2.6200320840375782e-05
2.7571273598034423e-05
2.889423177862796e-05
3.0167113352804977e-05
3.138979898251282e-05
3.256415174320974e-05
3.369412008568377e-05
3.478582814688114e-05
3.584763355691751e-05
3.689010930291039e-05
3.792598292352903e-05
3.897005623267566e-05
4.003913929026265e-05
4.1151998573929416e-05
4.232933771987353e-05
4.3593785125345225e-05
4.49698738216675e-05
4.648373701747841e-05
4.815907509026596e-05
4.996145833324506e-05
5.102197453126755e-05
2.7935214341058855e-06
3.060433395361923e-06
3.6079083257304823e-06
4.273654388868083e-06
5.04660020517172e-06
5.925214488135887e-06
6.907248811213969e-06
7.988920942224916e-06
9.164794758328532e-06
1.0427745612162009e-05
1.1768982387611656e-05
1.3178130421590441e-05
1.464339076572413e-05
1.615177309287077e-05
1.7689415117122683e-05
1.924197852381251e-05
2.0795120142328838e-05
2.233501989994548e-05
2.384891683608637e-05
2.5325601765923613e-05
2.6755803033687927e-05
2.8132432236633263e-05
2.9450691757674896e-05
3.070809575210784e-05
3.1904454773229035e-05
3.304186752029598e-05
3.412473264531552e-05
3.515974704395515e-05
3.615590525690714e-05
3.712445723192941e-05
3.807885737444518e-05
3.903471306726262e-05
4.000974887480978e-05
4.102380174743717e-05
4.2098846156965454e-05
4.325903775413301e-05
4.4530760839847886e-05
4.5942410348970307e-05
4.752056326862862e-05
4.923613586749798e-05
5.0252343554916814e-05
2.5829100287423e-06
2.8532117049687107e-06
3.4123804119944653e-06
4.098557355095875e-06
4.900043043581087e-06
5.814610833131868e-06
6.839307266442417e-06
7.969612111215303e-06
9.19928136562384e-06
1.0520279939942366e-05
1.19227700002559e-05
1.3395182602750432e-05
1.4924376904928977e-05
1.649590177817132e-05
1.8094356550190238e-05
1.970384467132338e-05
2.130850148321149e-05
2.2893061434767442e-05
2.4443425505867794e-05
2.5947171588732847e-05
2.7393971643034165e-05
2.8775879960148796e-05
3.0087499295941772e-05
3.132604500806324e-05
3.249134169428909e-05
3.3585785295868824e-05
3.461428366489257e-05
3.55841963026456e-05
3.650525982549069e-05
3.7389522031438345e-05
3.825127683256005e-05
3.9107027520899144e-05
3.997548100559976e-05
4.087758857634025e-05
4.183662424265883e-05
4.287830775311286e-05
4.4030930994499216e-05
4.5325247052718456e-05
4.679090968510705e-05
4.840486817652533e-05
4.936871134248581e-05
2.3502941570793006e-06
2.62432977012894e-06
3.1964844304336007e-06
3.905366588461629e-06
4.738554738065437e-06
5.693077786040643e-06
6.76526733264647e-06
7.9498714304027e-06
9.239840104522006e-06
1.0626196790789212e-05
1.2097982711176155e-05
1.364229950941926e-05
1.5244466687681904e-05
1.6888311739381777e-05
1.855657934319598e-05
2.0231460352406057e-05
2.189519263323691e-05
2.353071090272906e-05
2.5122272073677967e-05
2.6656033040064805e-05
2.8120506358635657e-05
2.9506900665352776e-05
3.08093092645707e-05
3.2024785990753965e-05
3.31533239467079e-05
3.41977683573359e-05
3.516369417808557e-05
3.605927017535336e-05
3.689512302108645e-05
3.768422518496338e-05
3.844181255544704e-05
3.918535159383973e-05
3.9934563231319176e-05
4.0711507374136754e-05
4.1540736794173814e-05
4.244950112359229e-05
4.346797936017008e-05
4.4629304900990444e-05
4.596632602794211e-05
4.74626877145378e-05
4.836532247634872e-05
2.097977650181305e-06
2.375823232304958e-06
2.9617829662594276e-06
3.6951609997428202e-06
4.562742536700455e-06
5.560795458805477e-06
6.6849774596572874e-06
7.929366181884777e-06
9.286154651003943e-06
1.0745429705579114e-05
1.2295047126436036e-05
1.3920626855198805e-05
1.5605704606202435e-05
1.7332049317866742e-05
1.9080147909015663e-05
2.0829826089805814e-05
2.2560970621313786e-05
2.425428996636963e-05
2.5892055495051238e-05
2.7458767021634338e-05
2.8941672272002796e-05
3.0331151961291957e-05
3.162091106526773e-05
3.280804018607395e-05
3.389293751110898e-05
3.487915235749432e-05
3.577317299731612e-05
3.6584201795476414e-05
3.73239500634302e-05
3.800646630221137e-05
3.864802920830781e-05
3.92671127902424e-05
3.988443853880446e-05
4.0523118771202764e-05
4.1208886710263675e-05
4.197040471178365e-05
4.283962932574194e-05
4.385199572689549e-05
4.50435651485147e-05
4.6405291474138445e-05
4.7237120737283e-05
1.8295903138661235e-06
2.1108688815704814e-06
2.71063998779173e-06
3.469464799101533e-06
4.373305507520256e-06
5.417708568048267e-06
6.597765599376272e-06
7.907022113423821e-06
9.337030938833122e-06
1.0876997307146914e-05
1.251354264884335e-05
1.423062860520554e-05
1.6009695537584635e-05
1.783002194302291e-05
1.9669304987173948e-05
2.1504425162829577e-05
2.3312336754757892e-05
2.5071000678493036e-05
2.67602935993861e-05
2.8362783931869564e-05
2.9864360955399082e-05
3.125462663055822e-05
3.2527098012069756e-05
3.367919032633841e-05
3.4712060653043246e-05
3.563032974146373e-05
3.6441752274022276e-05
3.715688105686375e-05
3.778876170741822e-05
3.835270073893838e-05
3.8866115497156845e-05
3.934850690429029e-05
3.9821537038237906e-05
4.0309241006707046e-05
4.0838345824721505e-05
4.1438714521912434e-05
4.2143855612861275e-05
4.2991311252466335e-05
4.402025398060765e-05
4.5229488557717865e-05
4.5980268795207673e-05
1.5503583136792822e-06
1.833997318130791e-06
2.446326753473379e-06
3.2302403935305326e-06
4.170924475200716e-06
5.263314489134139e-06
6.5021402133260705e-06
7.880661365466464e-06
9.390002609884883e-06
1.1018611132262064e-05
1.2751845085331343e-05
1.4571802977887981e-05
1.6457429692496697e-05
1.8384937106361265e-05
2.0328531505405103e-05
2.2261377594045582e-05
2.415673966779644e-05
2.59891693020209e-05
2.7735634376351428e-05
2.9376480461671277e-05
3.089614973157898e-05
3.2283608728586705e-05
3.3532490043978646e-05
3.464097912055153e-05
3.561149175486039e-05
3.6450242618257534e-05
3.716673501196851e-05
3.777328585199473e-05
3.828459060677158e-05
3.871741911214244e-05
3.9090425561483486e-05
3.942411784591493e-05
3.974097831269345e-05
4.0065747793071175e-05
4.042586542530359e-05
4.0852049714176346e-05
4.137901090700089e-05
4.204606288123468e-05
4.289526085532269e-05
4.393368868800543e-05
4.459271137647238e-05
1.267322866457305e-06
1.551252457369126e-06
2.173068869338272e-06
2.9798334193759865e-06
3.956099839007554e-06
5.096401020969047e-06
6.395437866710988e-06
7.846568351538134e-06
9.440854464420627e-06
1.1166201600189285e-05
1.300671788612778e-05
1.4942383164018318e-05
1.6949121025149917e-05
1.8999309198883103e-05
2.106270508286129e-05
2.3107725325237708e-05
2.5102937452498168e-05
2.7018617110754104e-05
2.8828198066239478e-05
3.0509467678248808e-05
3.2045400954225377e-05
3.342459322820726e-05
3.464129351684306e-05
3.569509949710986e-05
3.6590416909312595e-05
3.733575611834834e-05
3.794301283695864e-05
3.8426790377962746e-05
3.880381567629345e-05
3.909255059897279e-05
3.931295913233586e-05
3.948648686797931e-05
3.9636241040744796e-05
3.978735662427408e-05
3.996757255961485e-05
4.020798326329982e-05
4.054397609375203e-05
4.101615987994132e-05
4.166908118943051e-05
4.251843981588805e-05
4.307480026597258e-05
9.894383611270396e-07
1.270233787002639e-06
1.8960034533113349e-06
2.7208378058008947e-06
3.7289420888487725e-06
4.914733042660212e-06
6.2733814515880625e-06
7.798974240433467e-06
9.483065639235762e-06
1.1313386826433949e-05
1.3272851898817705e-05
1.533901420566211e-05
1.7484078704949412e-05
1.967553566010443e-05
2.187739303469409e-05
2.4051898469492555e-05
2.6161561940939387e-05
2.8171247776286527e-05
3.0050072923578195e-05
3.177291762261636e-05
3.3321381226907445e-05
3.4684174632172033e-05
3.585694115440658e-05
3.684165153787255e-05
3.764569764711895e-05
3.8280854686275976e-05
3.87622289737306e-05
3.910734986418765e-05
3.933541172354508e-05
3.946679252832532e-05
3.952279503243396e-05
3.952566119631872e-05
3.949882076940664e-05
3.946738596775389e-05
3.9458859605161284e-05
3.9504074687351064e-05
3.9638369445927175e-05
3.990289856804298e-05
4.034426865743635e-05
4.0986957989817184e-05
4.142989825723231e-05
7.274919787593294e-07
9.999633388617213e-07
1.6209914168382528e-06
2.4559806166745638e-06
3.4889934144333798e-06
4.714700990120645e-06
6.129614978191498e-06
7.729496952212659e-06
9.507224178293702e-06
1.1450905435471315e-05
1.3542405277581326e-05
1.575647418217303e-05
1.8060669735530028e-05
2.0416156403085445e-05
2.277938328143041e-05
2.5104462223711145e-05
2.7345987707278986e-05
2.9461897494693406e-05
3.1416026112377375e-05
3.318001402841621e-05
3.473439874172077e-05
3.606883843300631e-05
3.7181580910123175e-05
3.807835629730232e-05
3.8770941964386086e-05
3.9275627909897436e-05
3.9611767426814124e-05
3.980055461428573e-05
3.986411218919489e-05
3.9824912202857776e-05
3.970553813825892e-05
3.952876234246447e-05
3.931792136768093e-05
3.909754532712799e-05
3.889424813496504e-05
3.8737847750463563e-05
3.8662741888236645e-05
3.870955462525104e-05
3.8925797757913376e-05
3.934568387391738e-05
3.9665178471500335e-05
4.934453250664847e-07
7.503954799623529e-07
1.35459389050608e-06
2.188120419517422e-06
3.2348944777476327e-06
4.490890478085132e-06
5.955235927505583e-06
7.626647335420764e-06
9.500497385040116e-06
1.1566112166953103e-05
1.38046004194672e-05
1.61874846170171e-05
1.86764466999838e-05
2.1224350828175713e-05
2.377755310964469e-05
2.6279277137799445e-05
2.8673615181760677e-05
3.09095559623198e-05
3.294446514716955e-05
3.474652665232039e-05
3.6295895257087956e-05
3.758458410528541e-05
3.86152861482348e-05
3.939948888912677e-05
3.995525282418843e-05
4.030499573272588e-05
4.0473544996683284e-05
4.048657595386926e-05
4.036954605867086e-05
4.014708988932538e-05
3.98428509937442e-05
3.947970146975008e-05
3.908028160540456e-05
3.866783527189268e-05
3.826729703123563e-05
3.790663991971568e-05
3.761846066408326e-05
3.7441701793522285e-05
3.742310972161281e-05
3.760443112869801e-05
3.779094278149958e-05
3.0148386555165383e-07
5.327465199310472e-07
1.1040520468595649e-06
1.919673090320381e-06
2.964196448774321e-06
4.236318688932566e-06
5.739194416785717e-06
7.476237808653851e-06
9.446984329935493e-06
1.1643276988142538e-05
1.4046051948315569e-05
1.6623199039421467e-05
1.932894477990909e-05
2.2105138363141625e-05
2.488447180494964e-05
2.7595372093310505e-05
3.0167794722860556e-05
3.2539049676269765e-05
3.465861887789984e-05
3.6491264826850174e-05
3.801812212482118e-05
3.923586747906447e-05
4.015443540114678e-05
4.0793906497907094e-05
4.118114207265843e-05
4.134669582853337e-05
4.132223544007256e-05
4.113870523155278e-05
4.0825148933992895e-05
4.04081991304276e-05
3.991208748908605e-05
3.935909358218079e-05
3.877033972251778e-05
3.816687249963079e-05
3.757099847490614e-05
3.7007888258806264e-05
3.6507437502842705e-05
3.610643288781455e-05
3.584967619180107e-05
3.578525701645205e-05
3.582964194907579e-05
2.7416497425830064e-06
4.024245653366488e-06
7.3674483002864516e-06
1.4372488360908029e-05
1.717002867500677e-05
2.3153108372568975e-05
2.6180807097883176e-05
3.18659263280056e-05
3.4360849481483504e-05
3.837010919488003e-05
3.983351001710848e-05
4.0936411869616045e-05
4.169968956302137e-05
4.215509734004775e-05
4.23405564937592e-05
4.229606983111737e-05
3.837771753959292e-05
3.760157945832846e-05
3.4786550615057674e-05
3.4311667656217134e-05
3.3927339116560674e-05
1.708514598056496e-07
3.7997790458884726e-07
9.15374892100786e-07
1.7061287197665677e-06
5.562923406075129e-06
9.442904235577847e-06
1.1784399132280545e-05
2.0121165451080343e-05
2.9114061996757157e-05
3.65410452617338e-05
4.206067513575741e-05
4.167042430476892e-05
4.115735545974357e-05
4.0549203355729006e-05
3.9869787592963904e-05
3.913975648330163e-05
3.6830152069417935e-05
3.6084973453581424e-05
3.53924974910339e-05
3.401890753228642e-05
1.0688574137705715e-07
2.8732164138069407e-07
7.77537632203365e-07
1.5307191528031454e-06
2.5364222304841064e-06
3.8000763511858616e-06
5.335034545720608e-06
7.156429623007662e-06
9.274604273290024e-06
1.1688753280091577e-05
1.438117975316314e-05
1.7313092008272554e-05
2.0422941664598235e-05
2.362820950357448e-05
2.6830972436367466e-05
2.992671737388992e-05
3.281490367093268e-05
3.54091898818221e-05
3.764534428396124e-05
3.9485347607976975e-05
4.091751627845451e-05
4.1953206512076086e-05
4.262138140171349e-05
4.29624224868522e-05
4.302229302677754e-05
4.284776313785482e-05
4.2482993765986565e-05
4.196748915929478e-05
4.133517133822573e-05
4.061436706205785e-05