# vtk DataFile Version 2.0
time_10.vtk
ASCII
DATASET UNSTRUCTURED_GRID
POINTS   4141  float 
4.4255543570420014e-05        -2.1496907187542e-16          0.0                           
0.24999999999999997           4.190023680041344e-05         0.0                           
0.500040585926424             1.8537562049489737e-20        0.0                           
0.75                          3.764077717707606e-05         0.0                           
1.000035995580824             -2.5297176373195288e-17       0.0                           
1.25                          3.2332707632879385e-05        0.0                           
1.5000303078652204            6.088060536781153e-16         0.0                           
1.75                          2.5863063371188627e-05        0.0                           
2.0000234435956323            3.489597220174638e-18         0.0                           
2.25                          1.8221023252267957e-05        0.0                           
2.500015425805852             2.368441974103258e-18         0.0                           
2.7500000000000027            9.498271055013292e-06         0.0                           
3.0000063864578057            1.4886125207416572e-16        0.0                           
3.25                          3.4882855177628627e-17        0.0                           
3.4999964032272706            4.215538930598583e-17         0.0                           
3.75                          -1.0856203771597681e-05       0.0                           
3.999985436153349             1.202849928293448e-16         0.0                           
4.25                          -2.2149072472348317e-05       0.0                           
4.499973978116616             1.2759073897163534e-16        0.0                           
4.749999999999999             -3.391577761368539e-05        0.0                           
4.999962066027278             -1.2755240051953818e-16       0.0                           
5.250000000000001             -4.6112859044553965e-05       0.0                           
5.499949723161901             -8.859749192721407e-17        0.0                           
5.75                          -5.877084205041817e-05        0.0                           
5.9999368888238696            2.829249195621462e-17         0.0                           
6.25                          -7.201267150287392e-05        0.0                           
6.499923409449787             -4.568020823731769e-16        0.0                           
6.75                          4.4129889976281145e-05        0.0                           
7.0000429963009               3.2828995926786718e-06        0.0                           
7.250003515854819             4.046471229275416e-05         0.0                           
7.500039048418046             4.023747343135607e-06         0.0                           
7.750004295869031             3.587608052053381e-05         0.0                           
8.000034107866624             4.868204024131958e-06         0.0                           
8.250005164824655             3.01861652282145e-05          0.0                           
8.500028028041562             5.769760619135382e-06         0.0                           
8.750006074445324             2.331522107923497e-05         0.0                           
9.00002076340942              6.679639613262987e-06         0.0                           
9.250006976969647             1.528483591534707e-05         0.0                           
9.500012367578298             7.55381393481257e-06          0.0                           
9.750007830531747             6.205691964436217e-06         0.0                           
10.000002964967805            8.35454758208068e-06          0.0                           
8.645968555588613e-06         0.29999615482305797           0.0                           
0.24999259864658224           0.30000916036722747           0.0                           
0.5000093861767053            0.29998525773153634           0.0                           
0.7499814928981771            0.300009821267129             0.0                           
1.0000100313585314            0.2999737970283713            0.0                           
1.249969872470734             0.300010440856749             0.0                           
1.5000106427356397            0.29996188033200494           0.0                           
1.7499578139626366            0.30001104816343727           0.0                           
2.000011255001949             0.2999495354211925            0.0                           
2.249945317666028             0.30001168556904273           0.0                           
2.500011912786286             0.2999367023050471            0.0                           
2.7499322920693428            0.30001239949070857           0.0                           
3.0000126620633303            0.2999232269404163            0.0                           
3.2499185534640804            0.3000132322733992            0.0                           
3.5000061211761597            0.30004262417798744           0.0                           
3.750041410187421             0.30000702334085555           0.0                           
4.000007519141675             0.30003868754604657           0.0                           
4.250037162007779             0.3000085869871335            0.0                           
4.500009152606155             0.3000337485642004            0.0                           
4.750031850766511             0.3000103294932701            0.0                           
5.000010933356104             0.3000276579784292            0.0                           
5.250025360845811             0.30001215353848576           0.0                           
5.500012762828942             0.3000203689650821            0.0                           
5.750017679102812             0.3000139637170425            0.0                           
6.0000145497041295            0.3000119301803993            0.0                           
6.250008879649352             0.3000156821792033            0.0                           
6.500016227664429             0.3000024408155066            0.0                           
6.749999070985659             0.3000173024736621            0.0                           
7.000017819354985             0.2999920620352874            0.0                           
7.249988432199337             0.30001877055858994           0.0                           
7.500019215450487             0.2999809608961001            0.0                           
7.749977134537456             0.3000200675247303            0.0                           
8.000020479507981             0.2999693246300859            0.0                           
8.249965347142341             0.3000212882301096            0.0                           
8.500021690865037             0.29995725399846473           0.0                           
8.749953137666495             0.30002250897399174           0.0                           
9.000022931371825             0.29994475476201227           0.0                           
9.249940480217425             0.3000238204886252            0.0                           
9.500024294126625             0.2999317359529785            0.0                           
9.749927251207835             0.30002531570416263           0.0                           
10.000025869334525            0.299918011366158             0.0                           
4.31234541699269e-05          0.6000091573686581            0.0                           
0.2500098118434178            0.6000407970947085            0.0                           
0.5000394943171674            0.6000112602030294            0.0                           
0.7500120466208852            0.6000365632839855            0.0                           
1.000034919821105             0.6000137205572897            0.0                           
1.2500145974971175            0.6000312483989777            0.0                           
1.5000292129613955            0.6000164034373612            0.0                           
1.7500173212115864            0.6000247338874963            0.0                           
2.0000222905725464            0.6000191593899341            0.0                           
2.25002006984741              0.6000170057326611            0.0                           
2.5000141707649344            0.6000218519990529            0.0                           
2.750022717097136             0.6000081366060992            0.0                           
3.0000049469524623            0.6000243880803395            0.0                           
3.250025194482617             0.5999982593751568            0.0                           
3.4999947788118306            0.6000267388475798            0.0                           
3.7500274670794127            0.5999875730567488            0.0                           
3.9999838593176253            0.6000288353640691            0.0                           
4.250029483822471             0.5999762433096073            0.0                           
4.499972352787202             0.6000307308923775            0.0                           
4.7500313376851135            0.599964427030462             0.0                           
4.999960396336284             0.6000325400922163            0.0                           
5.250033145483243             0.5999522015465074            0.0                           
5.499948034582431             0.6000343906715426            0.0                           
5.750035041210032             0.5999395447320303            0.0                           
5.9999352113045505            0.6000364248084462            0.0                           
6.2500371680244164            0.5999263319322525            0.0                           
[...]
POINT_DATA  4141
SCALARS Con float 1
LOOKUP_TABLE default
0.0003019133400967481
0.0003252633976970266
0.000371407285722012
0.000425320306739118
0.0004862207247620344
0.0005542812958811015
0.0006296342844292235
0.0007122913541546003
0.000802131423748783
0.0008988982207213678
0.0010022032395367647
0.001111533489221889
0.001226263211027897
0.0013456680909057549
0.0014689395541742471
0.0015951948411213562
0.001723481034796252
0.001852767163901284
0.00198219817151461
0.002113089865299102
0.0022605756050288165
0.002408574838373815
0.0025413648390451822
0.002667691055659826
0.002794102881724931
0.002920212158988072
0.003046184455869699
0.0031723415662109514
0.0032992384530388173
0.003427619953693822
0.0035583979540992146
0.003692631704493491
0.0038315111966675955
0.003976341716093987
0.004128528601298071
0.004289561342751573
0.004460994531365736
0.004644398929237675
0.004840924771546032
0.00504531284709087
0.005163026237395313
0.00030660315514379426
0.00033049944703642014
0.0003775773037851767
0.00043249857133044684
0.0004944835549060831
0.0005636859259206713
0.0006402187837581156
0.0007240734977894914
0.0008151085406950733
0.000913047958095278
0.001017485448204915
0.001127893619999818
0.0012436380584173632
0.0013639958377151295
0.0014881786387882432
0.001615364298106294
0.0017447466955125698
0.0018756977336011555
0.0020080446025855774
0.0021451600310241456
0.0022840327006693533
0.0024207041542687138
0.0025534769550505996
0.002684063736619229
0.002812020910599843
0.0029388538064887503
0.003065098626252301
0.0031913400570859197
0.003318257062469903
0.0034466697045888992
0.0035775405478444215
0.0037119676898694593
0.003851173666390876
0.003996492640409909
0.004149356476600169
0.004311279407687784
0.004483839092204874
0.004668628141598007
0.004866809905648582
0.005073210340393534
0.0051922203858299374
0.0003039589690906461
0.0003278417138339825
0.0003750134619263839
0.0004301659302735896
0.0004925018362785565
0.0005621682760113396
0.0006392690625535193
0.0007237855037201896
0.0008155657864912589
0.0009143243510926475
0.0010196473316728294
0.0011310041070584013
0.0012477655009882707
0.0013692300065784244
0.0014946619641110226
0.0016233499192452546
0.0017547155176691623
0.0018884412585429705
0.002025034307573555
0.0021608321319115664
0.002290634301450705
0.0024202857039967705
0.002554202540031308
0.002686449328805734
0.002816195493008679
0.0029438550027177505
0.003070280557964067
0.0031962285200597394
0.0033225068608173343
0.0034500162609199646
0.003579774518223112
0.003712921611889264
0.003850716127703613
0.0039945268944488015
0.004145821779901311
0.004306154172385405
0.004477145274961526
0.004660435853143307
0.004857247550215518
0.005062427144830738
0.00518077098088841
0.0002993732845690138
0.0003232863594137543
0.0003706348265570617
0.0004261695722880622
0.0004890886675345235
0.0005595256000119835
0.0006375685316365141
0.0007231813012405841
0.0008161937186007626
0.0009163018577322368
0.0010230746683189396
0.001135967101727059
0.0012543403293590214
0.0013774899787854364
0.0015046830944688144
0.0016352041112437136
0.001768381195832001
0.001903583461941112
0.002039174625195108
0.0021730275537085297
0.0023049748078126796
0.0024357471350953254
0.0025663653617452233
0.0026971966315399204
0.002826476480390387
0.002953867836816344
0.0030797268968004174
0.00320472817066204
0.0033296841997085347
0.003455532257604149
0.003583332988035239
0.003714270953633489
0.0038496512055950483
0.0039908925370234554
0.004139518027618441
0.0042971431002603614
0.004465459055296528
0.004646186048024356
0.004840633939603243
0.005043792192122913
0.0051611506676741935
0.00029289126255252707
0.00031684882094905586
0.0003644584775356537
0.0004205433376101613
0.00048429255490237567
0.000555820843001744
0.0006351934600750325
0.0007223485658151977
0.0008170881890848965
0.0009190790744849968
0.0010278596354538873
0.0011428529727680237
0.0012633858043740254
0.001388712192822423
0.0015180386954261084
0.0016505381791162897
0.0017853341026674598
0.0019213140976752161
0.0020571992915117752
0.002191926007838604
0.0023249016960584716
0.0024563878959792864
0.0025868054288826926
0.0027160375571513573
0.002843854485459913
0.0029698888602596608
0.003094269444238898
0.003217492781359535
0.0033403057967354
0.003463635727888748
0.003588564137668478
0.0037163137698197654
0.003848239829551293
0.0039858215963258295
0.004130653178295452
0.004284432459510093
0.004448945823112556
0.004626022352313959
0.004817100002974278
0.005017369627559524
0.005133308933855491
0.00028445621641627215
0.00030848154394429324
0.0003564463590902047
0.00041325957461327625
0.00047809706826194886
0.0005510481814035455
0.0006321477458303759
0.0007212995838242557
0.000818267933367014
0.0009226783389685009
0.0010340241472270241
0.001151678258135816
0.0012749093124356887
0.0014029002015887551
0.0015347639806459435
0.001669550212495663
0.0018062228069708301
0.0019436774975930538
0.002080823435989599
0.0022167429249831208
0.0023509076253654644
0.002483128820281078
0.002613397056687973
0.002741706109923068
0.002867929610867527
0.0029920419797274033
0.0031141949526147074
0.0032348287700474806
0.0033546406993524005
0.0034745429975048653
0.0035956309757808197
0.003719163416205078
0.0038465492721096155
0.003979337280107081
0.004119206372461104
0.004267955414944053
0.004427489296094988
0.004599775205403317
0.00478641594713729
0.004982863996187111
0.005096914832265537
0.000274011975481027
0.0002981333946558738
0.00034655878658350125
0.00040429117978964734
0.00047048791695794497
0.0005452060526851757
0.0006284423005493258
0.0007200575790427757
0.0008197685548620786
0.0009271481445755408
0.001041631126956218
0.0011625244420300589
0.0012890213478557813
0.0014202176395556841
0.0015551274878538982
0.0016926959974991307
0.0018318200496518185
0.0019713878136340297
0.0021103549267027484
0.002247849227519442
0.0023832374954134957
0.002516138685981329
0.0026463531622531347
0.0027737747005729734
0.0028983763346226866
0.003020227242265416
0.003139575628310822
0.003256885805533088
0.0033728566143533616
0.0034884070684251746
0.0036046562262123257
0.003722905406661092
0.0038446245461426984
0.00397144155092425
0.004105133270547267
0.004247616612036688
0.004400936710765314
0.004567226144293754
0.004748287036084407
0.004939895529687933
0.0050515394685673445
0.0002615101729970279
0.0002857610513675908
0.0003347629719203324
0.00039361764915048615
0.0004614575110520833
0.0005383001205549367
0.0006240966400560626
0.0007186571598599224
0.0008216419539894595
0.0009325612176361346
0.0010507796182809448
0.0011755255080044373
0.001305904416243082
0.0014409161293687542
0.001579474729790436
0.0017204336916557357
0.0018626195325141372
0.0020048803868659443
0.0021461490369194965
0.0022855069624657413
0.0024222327779783877
0.002555812563451887
0.0026859196615555267
0.002812385657719477
0.0029351823241186726
0.003054436703481247
0.003170454897441187
0.003283750906175049
0.0033950579225164607
0.0035053275933599934
0.0036157198590950346
0.0037275908001581015
0.0038424817232360397
0.003962110412588872
0.004088364138849951
0.004223293330370956
0.004369102903415899
0.004528115568788092
0.00470236554131556
0.004888018381312525
0.0049966785691882105
0.0002469234898985271
0.0002713402726273933
0.0003210421704686117
0.0003812316304670226
0.000451008815954278
0.0005303445431694854
0.0006191376696986727
0.0007171407216372407
0.0008239502776155866
0.0009390054290403547
0.0010615910557931563
0.0011908462151488262
0.0013257779169024153
0.0014652804003281391
0.0016081604123374602
0.001753169432614819
0.0018990444878418165
0.0020445575849398767
0.0021885702663208494
0.0023300856015729117
0.0024682865420430048
0.002602555001107112
0.002732472572018403
0.0028578122813338477
0.0029785340737499486
0.0030947876340971024
0.0032069240885679523
0.0033155070771791594
0.0034213200628621545
0.0035253660950792798
0.0036288625952309635
0.003733233806004103
0.0038401036374730024
0.003951290217255472
0.004068802345920105
0.004194837097839852
0.004331775719420663
0.004482152697175291
0.0046482647658565275
0.004826734850485235
0.0049317666733384325
0.00023026126830447567
0.00025487982514181665
0.00030540621221556173
0.0003671458739855314
0.0004391586330571551
0.0005213616227665734
0.0006135958661027389
0.0007155513886497811
0.0008267557710449484
0.0009465704988175344
0.0010741923999858696
0.0012086610487872173
0.0013488729993214074
0.001493603480020447
0.001641535969345245
0.0017912998564302974
0.0019415156755528316
0.0020908460086294166
0.0022380480501005807
0.00238202191408624
0.0025218488963757507
0.0026568160027784365
0.002786427503857423
0.002910407971308447
0.003028702108301783
0.003141475781191427
0.0032491184482373557
0.003352245917575727
0.003451701019518429
0.003548551556094574
0.003644085975612507
0.0037398085817562624
0.003837435805426076
0.003938894722902055
0.004046324066995473
0.004162077155800743
0.004288724001891574
0.004429028179025564
0.004585575525776567
0.004755515549366785
0.004856199251283041
0.00021158819165772517
0.0002364377517152171
0.0002879033356105889
0.00035140028673312274
0.000425939808664695
0.000511379297732979
0.0006074984034203577
0.0007139222831241823
0.0008301068280511312
0.000955331530208938
0.0010886979975586778
0.0012291356825470902
0.001375416236338554
0.0015261773979418191
0.0016799566484811536
0.0018352340270515702
0.001990482415509761
0.0021442222994038466
0.002295076745546939
0.0024418217278584222
0.0025834273487570867
0.0027190873775719106
0.002848237014292007
0.0029705610214421753
0.00308599556681761
0.003194726585899925
0.003297186640399327
0.003394050650103695
0.0034862309167867597
0.0035748715801096806
0.003661343481814241
0.0037472405733567807
0.003834379119013634
0.003924800464619909
0.004020777554486888
0.004124824604489478
0.004239707221763328
0.004368429428676256
0.004513887163614
0.004673825548504185
0.004769361464682762
0.00019104586832898658
0.00021613986960177295
0.0002686329034109402
0.0003340685238285719
0.0004114016879596259
0.0005004257497533594
0.0006008584929396972
0.0007122614937351931
0.0008340197593005415
0.0009653290084323977
0.001105189539363434
0.0012524090629389114
0.001405616545109185
0.0015632882434967817
0.0017237859566954067
0.0018854062155264479
0.0020464377434731085
0.0022052232679761826
0.002360220886055925
0.0025100600645871435
0.0026535880600733427
0.0027899041839562827
0.0029183812660372468
0.0030386756277780433
0.0031507279216025177
0.003254757684927092
0.0033512541295988994
0.003440965133180087
0.003524886139935213
0.00360425032237638
0.003680521389003656
0.0037553903646193217
0.0038307773330044786
0.003908838797780479
0.003991980678833406
0.004082876239521667
0.004184486223604364
0.004300058679307995
0.0044328130319826855
0.0045811569120412865
0.004670664472883077
0.0001688768326620089
0.00019419984676352148
0.00024775826569642585
0.00031526325620508425
0.0003956078914984422
0.0004885201430081392
0.0005936599621435737
0.0007105317727317642
0.0008384552860204064
0.0009765441480603886
0.0011236926072625592
0.0012785736626234878
0.0014396515831756377
0.0016052103582617709
0.0017733979418435887
0.001942284285821227
0.0021099293930350116
0.002274456237599716
0.002434122652800193
0.0025873864229312695
0.00273295880814312
0.0028698435153643926
0.0029973601314130308
0.0031151530713932067
0.0032231884856860826
0.003321742409733552
0.003411383648365361
0.003492954549566505
0.0035675526272571467
0.003636515286956911
0.003701409713356369
0.0037640293881786003
0.003826398331733379
0.0038907835871682304
0.0039597158581599545
0.0040360174394618534
0.004122834673994463
0.004223653462142687
0.004342020329667689
0.004477067704944757
0.004559589377054136
0.00014544957455738612
0.00017093953989892117
0.00022551845096331093
0.0002951389026886459
0.00037863028557762337
0.000475658487196711
0.0005858360681129509
0.0007086238920156583
0.0008432885977485951
0.0009888682968370946
0.0011441483646849068
0.001307652357728181
0.0014776521987733015
0.0016521997499935265
0.0018291794555298972
0.00200637912689258
0.0021815735676067273
0.0023526139991183357
0.002517515511292414
0.0026745350864975804
0.002822234289648724
0.0029595228869317165
0.0030856823332393365
0.0032003704532377808
0.0033036105973640283
0.003395769646866129
0.0034775297016993775
0.0035498580609837765
0.0036139795099381093
0.0036713542671079364
0.0037236640128117627
0.0037728078599819606
0.0038209092853985793
0.003870334540292421
0.003923722369090045
0.003984024101746409
0.004054551070719398
0.004139009255333257
0.004241263933117871
0.004361227193737756
0.00443573881856861
0.00012128202061285118
0.000146807212580029
0.000202236756017016
0.00027389030207267573
0.0003605381620376591
0.0004617938999499307
0.0005772418994427573
0.0007063229305099868
0.0008482721237301691
0.0010020655394577934
0.0011663796746152302
0.0013395715897479552
0.0015196854665187364
0.001704488547447461
0.0018915359339291217
0.0020782599551532137
0.0022620765706217036
0.002440498828741792
0.0026112465462422006
0.00277234213148747
0.002922184702090085
0.003059597935446459
0.0031838507435448795
0.003294653161949383
0.0033921323561900657
0.0034767951658184423
0.003549483877290712
0.003611331655219783
0.0036637229034920653
0.003708262760342153
0.003746758596661707
0.0037812153945340652
0.0038138459594450782
0.003847096330834071
0.0038836862309540813
0.003926663757528056
0.0039794714957709
0.004046003878019887
0.004130423522216972
0.004233466366606228
0.004298895138084616
9.705924726006454e-05
0.00012238987205509823
0.00017832336408133277
0.000251745998781816
0.0003413822761338684
0.0004468115758698266
0.0005676206458765354
0.0007032674356053302
0.000852990852176329
0.0010157284060776134
0.0011900518692894231
0.0013741316844604922
0.0015657381579517573
0.001762283676534167
0.0019609051991094474
0.0021585808907446974
0.0023522698319955308
0.002539060311123242
0.0027163110631202225
0.00288177119910043
0.0030336682535050535
0.003170758819288523
0.0032923416520687955
0.003398237787177939
0.0034887456105930463
0.003564580326668011
0.0036268074944002166
0.003676779105849138
0.0037160789778779278
0.0037464822940676684
0.003769932315676889
0.00378853577845536
0.003804577569651155
0.003820554577930441
0.0038392284889290917
0.0038636972877602845
0.003897483895941973
0.0039446248100395345
0.004009542718717967
0.004093832094092308
0.004149084622060758
7.363786065472984e-05
9.841379171539857e-05
0.00015426921474697767
0.0002289552933291849
0.0003211757127668603
0.000430500500338442
0.0005565646266179888
0.0006989024264260696
0.0008568114075547803
0.0010292280900760077
0.0012146298341161408
0.0014109765699898435
0.0016157039418012245
0.0018257743477218028
0.002037785195570007
0.0022481256239535105
0.002453165219368812
0.0026494530741508872
0.002833903867480948
0.0030039503587217685
0.0031576477196167863
0.003293723400609422
0.0034115744365255446
0.0035112208757847358
0.003593228278382133
0.0036586136516211015
0.0037087483710972684
0.003745269340630192
0.003770006373593866
0.0037849310240851155
0.0037921292375895075
0.0037937985781193485
0.003792269515792116
0.003790049892045445
0.0037898917970717906
0.003794880696598665
0.0038085482352160998
0.003834998703878599
0.0038788730164305792
0.003942641509859236
0.003986638669295062
5.2031899415589285e-05
7.57266786262778e-05
0.0001306258536900322
0.00020577583702804608
0.0002998770293613906
0.00041252178843560435
0.0005434727681040112
0.000692429703282164
0.0008588289588043792
0.0010416631339013093
0.0012393351730375845
0.001449566875181001
0.0016693791580550106
0.0018951547053745093
0.0021227835869462573
0.002347879166933145
0.0025660397151901935
0.0027731221588064227
0.002965492519692191
0.003140222155259181
0.0032952098330837126
0.0034292231354282553
0.0035418657328363462
0.003633486786797247
0.0037050537541091512
0.003758010376426942
0.0037941387452978884
0.003815439549542268
0.003824039463827272
0.003822130039723573
0.003811939048344289
0.003795733092382861
0.003775849280932359
0.003754753697556216
0.003735124856446354
0.003719961579935647
0.0037127152694257028
0.0037174504272695598
0.003738910995927323
0.003780538548133253
0.0038122751625842737
3.334392619968918e-05
5.524765833703224e-05
0.0001079994703642111
0.00018247168810706733
0.0002773603508458683
0.00039237183234588707
0.0005275118300001612
0.0006827656073481146
0.0008578219735084923
0.0010518150449915756
0.0012631103124569304
0.0014891626148666613
0.0017264739186825036
0.0019706700010344714
0.0022166995586420718
0.0024591384507164967
0.0026925609936428612
0.002911925530786216
0.003112918139642346
0.003292207513618349
0.003447583364528448
0.003577973826869381
0.0036833581722177638
0.0037646046974916386
0.0038232688502420203
0.003861384237759943
0.0038812719692370773
0.0038853851207083664
0.003876196543664854
0.0038561318836895188
0.0038275453754904516
0.003792734007513548
0.0037539853823189643
0.003713655032420155
0.003674270633069786
0.0036386612912279953
0.003610112606580331
0.0035925339370969575
0.003590603256187851
0.0036085137081341622
0.003627035498395324
1.8835394787124438e-05
3.797904658320921e-05
8.703912256221791e-05
0.00015925778442879871
0.00025340136903006155
0.0003694099506088961
0.0005076616002343074
0.0006685899759979507
0.0008522969595837998
0.0010581888639097914
0.0012846619547211226
0.0015288814397642425
0.001786698379882477
0.00205273997999059
0.0023206846934757316
0.0025836993590874443
0.0028349786858893294
0.003068301393997015
0.003278511324614895
0.0034618501185365563
0.0036161035755938255
0.003740564589179668
0.003835848870768991
0.0039036181710242297
0.003946267938018907
0.003966627483045101
0.003967705185646267
0.0039524959751406335
0.003923855400995067
0.003884436229551975
0.003836679120009361
0.0037828479229755356
0.0037251013568856614
0.003665595021942176
0.003606610682601541
0.0035507122577166364
0.003500928116528225
0.003460965179803702
0.0034353180860910134
0.003428805160431147
0.0034331973091675763
0.00023382265098907426
0.00035032925316150427
0.0006582170413100021
0.001314028024414308
0.0015788794963730946
0.0021505088434666843
0.0024426100106058764
0.002997107363789432
0.0032434934020556445
0.0036450873246107445
0.0037943791611894408
0.00390871256808856
0.003989698210765131
0.004040102040203942
0.004063394316575106
0.0040633490001298666
0.003688029793830382
0.003611141347092127
0.0033309147110022535
0.0032835517183755648
0.003245244388124307
9.852769368003976e-06
2.652985083105006e-05
7.163347767400117e-05
0.00014101045000640002
0.0004914477701910345
0.0008512875875731432
0.0010704175040569183
0.001859940348339288
0.0027276323263254946
0.0034608199530594607
0.004043729737303253
0.004008074428162732
0.0039595735016746975
0.0039010277000560162
0.003834868575754778
0.0037632258424299
0.003534507010480114
0.003460340277688417
0.003391335780013893
0.0032543586460292186
6.137272259469428e-06
1.9868112615160338e-05
6.0359795362019467e-05
0.00012588301157081863
0.00021558693144474702
0.0003299950970070005
0.0004704211281812838
0.000638408540564117
0.0008351169620436422
0.0010607196336308354
0.0013138474085480122
0.0015911619648247817
0.0018871541498381513
0.0021942554574423995
0.0025033044069929194
0.0028043313920004947
0.0030875379637465483
0.0033442834680569374
0.003567884602714238
0.003754085984920713
0.003901152716652481
0.004009628203686597
0.0040818639170268544
0.004121447381836426
0.004132639521338595
0.0041198967737552375
0.0040875154625188755
0.004039404280982373
0.003978970967273594
0.0039091002197261015
0.003832198579661962
0.003750286189077259
0.003665120573702261
0.0035783443941240973
0.0034916546619592173
0.0034069954062799575
0.0033267823236103385
0.003254159833793617
0.003193319845020808
0.0031495304060872266
0.003132033561701004
4.582308628564421e-06
1.5520579297359713e-05
5.1599369904514976e-05
0.00011333288791147818
0.00019995451541233793
0.0003122268045653634
0.0004519143079163237
0.0006211135527301758
0.0008215532889611338
0.0010538766236243742
0.0013169604081328561
0.0016073661061152557
0.0019190507745003706
0.002243462403846653
0.0025700887057535137
0.002887423661196087
0.0031841923077548487
0.003450582884036283
0.0036792236924341596