# vtk DataFile Version 2.0
time_10.vtk
ASCII
DATASET UNSTRUCTURED_GRID
POINTS   4141  float 
7.4907466952496e-05           7.899457010214507e-18         0.0                           
0.25000000000000006           7.136783519141404e-05         0.0                           
0.5000693295899218            -7.185801842681821e-16        0.0                           
0.75                          6.464071494456537e-05         0.0                           
1.0000619650620814            2.6572107777301294e-17        0.0                           
1.25                          5.590401001390801e-05         0.0                           
1.5000525062379197            4.209617960858924e-17         0.0                           
1.7499999999999998            4.496218993352982e-05         0.0                           
2.000040817075276             -4.4421393177044104e-17       0.0                           
2.25                          3.180034928209927e-05         0.0                           
2.5000269435645848            -8.490024386456481e-18        0.0                           
2.75                          1.659321161508403e-05         0.0                           
3.0000111427418363            7.355252655383638e-17         0.0                           
3.25                          -6.484653349900105e-18        0.0                           
3.4999934943883426            -2.659949990302104e-18        0.0                           
3.75                          -1.9561208362853546e-05       0.0                           
3.999973768536231             -7.584557796783038e-18        0.0                           
4.25                          -3.9912171855648093e-05       0.0                           
4.499953082513901             -3.715813749814942e-17        0.0                           
4.75                          -6.124031201795892e-05        0.0                           
4.9999314463913205            1.4001921733276597e-16        0.0                           
5.25                          -8.348578153683308e-05        0.0                           
5.499908888843157             2.1528948468928585e-16        0.0                           
5.749999999999999             -0.00010671222087329579       0.0                           
5.99988529318204              1.1662994366208387e-17        0.0                           
6.250000000000001             -0.0001311461121663956        0.0                           
6.499860379087613             -7.408265635813852e-16        0.0                           
6.75                          7.46548371891854e-05          0.0                           
7.000072971903212             4.929991755620506e-06         0.0                           
7.250005392281406             6.908473783079511e-05         0.0                           
7.500066848506042             6.390226484786852e-06         0.0                           
7.7500069208834885            6.172313551732056e-05         0.0                           
8.00005881281947              8.031013019423594e-06         0.0                           
8.250008604185702             5.2260206214812605e-05        0.0                           
8.500048609954243             9.770629157016524e-06         0.0                           
8.750010357543363             4.0558522831213904e-05        0.0                           
9.000036162699786             1.152360548106624e-05         0.0                           
9.250012097085534             2.6659889971807408e-05        0.0                           
9.500021570392882             1.3211556268200759e-05        0.0                           
9.750013747085617             1.0766934602191397e-05        0.0                           
10.000005053684909            1.4762926912513304e-05        0.0                           
1.5354135121719117e-05        0.29999295703069784           0.0                           
0.24998659684286947           0.3000163850593904            0.0                           
0.5000168307801273            0.2999734136654583            0.0                           
0.7499666319499931            0.30001769723576427           0.0                           
1.0000181188566812            0.2999527265515828            0.0                           
1.2499456133972862            0.30001894544396396           0.0                           
1.5000193546561524            0.2999310824347051            0.0                           
1.7499236661352613            0.3000201779512572            0.0                           
2.0000205978558943            0.29990852112243094           0.0                           
2.2499007818778387            0.30002146944246083           0.0                           
2.5000219272497577            0.2998849277579795            0.0                           
2.749876789889185             0.3000229015068217            0.0                           
3.000023423266206             0.2998600211368216            0.0                           
3.2498513569420497            0.30002454758188574           0.0                           
3.5000089726645296            0.30007222249602783           0.0                           
3.7500703793413903            0.30001076995736514           0.0                           
4.000011746850381             0.3000661187431245            0.0                           
4.250063671803649             0.30001383364153605           0.0                           
4.50001493220011              0.30005808549696156           0.0                           
4.750054928915426             0.30001720851476293           0.0                           
5.00001837332551              0.300047862773904             0.0                           
5.250043949523914             0.30002072415306              0.0                           
5.500021897878994             0.3000353695248283            0.0                           
5.750030711322818             0.3000242137126288            0.0                           
6.0000253459401724            0.3000206904954352            0.0                           
6.250015341529475             0.30002754100478807           0.0                           
6.500028603968938             0.30000398008556267           0.0                           
6.749998003832841             0.3000307282822191            0.0                           
7.00003175895935              0.29998551498851195           0.0                           
7.249979015523389             0.30003365099941076           0.0                           
7.500034537551615             0.29996558170441723           0.0                           
7.749958677285541             0.3000362458740317            0.0                           
8.000037076726567             0.2999445382284707            0.0                           
8.249937314279695             0.30003871483888384           0.0                           
8.500039532595117             0.29992256902265463           0.0                           
8.74991504608281              0.3000411945027341            0.0                           
9.000042050944664             0.29989967925227595           0.0                           
9.24989182062894              0.3000438459248265            0.0                           
9.5000447965696               0.299875699998635             0.0                           
9.749867410738164             0.30004683211568794           0.0                           
10.000047926780631            0.2998502929003394            0.0                           
7.263157771014212e-05         0.6000134161319591            0.0                           
0.2500147253867756            0.6000691427154017            0.0                           
0.5000671246155609            0.6000175879758409            0.0                           
0.7500191279710993            0.6000624601749415            0.0                           
1.0000597872962624            0.6000223840388873            0.0                           
1.2500240815465007            0.6000537103086662            0.0                           
1.500050293116747             0.6000275668046336            0.0                           
1.7500293349972107            0.6000426858471205            0.0                           
2.0000384961613427            0.6000328755533393            0.0                           
2.2500346306190795            0.6000293602372817            0.0                           
2.500024424860576             0.6000380731932551            0.0                           
2.750039749746409             0.6000138527111303            0.0                           
3.000008230788237             0.6000430059259595            0.0                           
3.250044589683977             0.5999963827262877            0.0                           
3.4999901897438113            0.6000476457586075            0.0                           
3.7500490934343134            0.5999773125838395            0.0                           
3.999970647241641             0.600051822720116             0.0                           
4.250053122396249             0.5999569246473677            0.0                           
4.499949889714019             0.6000556354217146            0.0                           
4.750056864034788             0.5999355103307348            0.0                           
4.99992817410533              0.6000593059075701            0.0                           
5.250060536724148             0.5999132122338955            0.0                           
5.4999055811650726            0.6000630646171506            0.0                           
5.750064380766083             0.5998899877628808            0.0                           
5.999882006129322             0.6000671643758239            0.0                           
6.25006864954157              0.5998656083747305            0.0                           
[...]
POINT_DATA  4141
SCALARS Con float 1
LOOKUP_TABLE default
0.000647223154628887
0.0007183463356952769
0.0008582863807773831
0.0010234919807333705
0.0012120408864719405
0.0014247635908637148
0.0016623285661628425
0.001925000936553165
0.002212601651006289
0.0025244966755414884
0.0028596032532417896
0.003216410885260835
0.003593013751134213
0.003987148783868917
0.004396229799442785
0.00481736062314932
0.005247320497451934
0.005682521783802376
0.006120084755129788
0.00656730699421172
0.007091449804696452
0.00762083043135677
0.008085459037007262
0.00852646313895543
0.00897157722257773
0.009418986805136866
0.009868963643480546
0.010322291517315948
0.010780598603134378
0.011246181702657556
0.01172191553401795
0.012211175860841451
0.012717775672082304
0.013245906136437379
0.013800078460429493
0.014385063669535656
0.015005823052785822
0.015667344502349717
0.016373194575254352
0.01710493009437819
0.01752665036786357
0.000659423327067593
0.0007323470588848594
0.000875248975011794
0.0010436984293677835
0.0012357784552239454
0.0014522616034985344
0.0016937562663016895
0.0019604631671962984
0.00225213797978644
0.0025680838919184736
0.0029071621419402205
0.00326781903456323
0.0036481282722647993
0.004045847876535633
0.0044584938508268205
0.004883449247236294
0.0053181590533941175
0.005760811050359733
0.006211654549418717
0.006685704060070477
0.007171132773688766
0.007650922887133097
0.008117682179889073
0.008577954596289189
0.00903063228586017
0.009481936344714944
0.009933780948340654
0.010388083120505116
0.010846997907378485
0.011313132641995648
0.011789564542023059
0.012279820273497334
0.012787836646157617
0.013317913377344627
0.013874660647238449
0.014462941465994925
0.015087802692551902
0.01575431264931814
0.016466082472932422
0.017204940314135587
0.01763126707278118
0.0006526021895596119
0.0007253939056464094
0.0008684348112301685
0.0010374250640532157
0.001230411743497735
0.0014481577352105784
0.0016912532940004147
0.0019598788075412825
0.00225376969168432
0.0025722126025062644
0.002914061637001578
0.0032777752041941647
0.0036614764120149516
0.0040630440116098425
0.0044802524820274645
0.004910999814642594
0.005353753050027043
0.0058080927985858476
0.006276960767396176
0.0067455344638977415
0.007190662852001134
0.00763862914813145
0.008110062851676708
0.008578546720711086
0.009039863692366422
0.00949568834294675
0.00994930074561915
0.010403386171862022
0.010860669000387384
0.011324108858493805
0.011797019597855693
0.012283102790250121
0.012786441963128703
0.0133114747369217
0.013862952009427984
0.014445887434811162
0.015065492564767196
0.01572701287567569
0.016434256686716473
0.01716906043697149
0.017593100218251174
0.0006407126959239834
0.0007134631390568998
0.0008567802570257219
0.0010266493799872085
0.001221126120189769
0.0014409492867983747
0.0016866777387426265
0.0019584549357413426
0.0022559771987919887
0.0025784934290341245
0.002924825968432169
0.0032934139119485738
0.0036823819409517694
0.004089639582862364
0.004513015287898482
0.0049504264806313255
0.005399963219438173
0.005859807268477888
0.006323740322951787
0.006782928321901708
0.007237213955677851
0.007690380448248513
0.0081473660265186
0.008609970614009331
0.009070182389660609
0.009526067070311974
0.009978686690132714
0.01043032532598712
0.010883705467611254
0.011341928895807298
0.01180847937028379
0.012287234363869267
0.012782458897749116
0.01329878369029012
0.0138411705890166
0.014414866973819326
0.015025343494553194
0.015678130000459808
0.016377336280274876
0.01710525858949361
0.017525937901827045
0.0006239360800461291
0.0006966252891907902
0.0008403591901503728
0.0010114895831632984
0.0012080783929798709
0.0014308308533486315
0.001680258234912358
0.0019564473995362943
0.0022590313927226056
0.002587190889603163
0.0029396758323574474
0.00331484747869969
0.00371074059137442
0.004125141599306431
0.004555668411494508
0.004999796786980946
0.0054547480676852885
0.005916648815162322
0.006380729990724407
0.00684307570996492
0.007301680449569422
0.007758183935547661
0.00821479788025099
0.008671152122033846
0.009126105910709276
0.009577659411041094
0.010025800344467936
0.010471982511449898
0.010918596407647313
0.011368663964929419
0.011825728344340362
0.012293802828769643
0.012777338978225802
0.013281195466081409
0.013810601735086837
0.014371113252496794
0.014968550331887093
0.015608835078958265
0.01629652613772107
0.017014629042468324
0.017430536014641822
0.0006021586203840356
0.0006747905059526684
0.0008190966278664025
0.0009918882089729657
0.0011912296632413956
0.0014177790166161987
0.001671982755164463
0.0019538498195382035
0.0022629234064127928
0.0025982817741042525
0.0029585569199084075
0.0033419698853179225
0.00374637937239836
0.004169334853786567
0.00460811323587806
0.0050597084349484475
0.005520696268836211
0.0059872633736355076
0.006455550588971477
0.006922316873610796
0.0073858844993961335
0.00784589961024036
0.008302620346591558
0.00875612437387241
0.009205734784229704
0.00965097520336216
0.010091930207041952
0.010529763499069186
0.01096660082789877
0.011405352053277992
0.011849576886651917
0.01230340410542039
0.012771477461679486
0.01325891285620483
0.013771257292708288
0.0143144435778676
0.014894730965022591
0.015518546795947412
0.016191047684093417
0.016896151113294882
0.017305674801953348
0.0005752899590776399
0.0006478746036513311
0.0007929262640391772
0.0009677982780519256
0.0011705518465512021
0.0014017832139275443
0.0016618565926431296
0.0019506822857941618
0.002267688266823486
0.0026118184134264373
0.0029815461879708033
0.0033749021033221776
0.003789511466627151
0.004222635014354089
0.004671202540961822
0.00513182887975327
0.0056008641500267025
0.006074532909531344
0.006549234208684176
0.007021976109653508
0.007490641034307258
0.007954028546027248
0.00841153522390467
0.008862760514065118
0.009307432178161738
0.009745473150131585
0.010177370904259606
0.010604360943646866
0.011028528846617421
0.011452763133412038
0.011880676486007092
0.012316533653425173
0.012765194532061545
0.013232067487898036
0.013723067055210248
0.014244570244657069
0.014803361278350845
0.015406480827128767
0.016059811040945223
0.016748388154177875
0.01714974073913888
0.0005432850391032407
0.0006158362601144696
0.0007618165340511235
0.0009392017534914541
0.0011460412405827334
0.001382854289319364
0.001649906664686736
0.0019469921803419435
0.002273402539344732
0.0026279214841440643
0.003008832746104255
0.0034139411110883588
0.003840605079890089
0.004285778674626708
0.004746061063348301
0.005217765178533189
0.005697024342815061
0.006179966013968941
0.006662953327544329
0.007142833526707423
0.007617124550972447
0.008084042276951042
0.008542403474091131
0.008991494871116498
0.009430991935974986
0.009861025234891563
0.010282292277811704
0.010696199210474256
0.011104929721897354
0.011511459283498204
0.011919523236562164
0.012333570558588044
0.012758718090772135
0.01320070958177566
0.01366587828771413
0.014161109286100286
0.014693791838293044
0.015271678311704973
0.015901500458993932
0.01656964794416466
0.016960823665302358
0.0005061853152133867
0.0005787114124395836
0.0007257982980076792
0.0009061286111666288
0.0011177288605055383
0.0013610263648408593
0.0016361751100006227
0.0019428395173961078
0.0022801605567808105
0.0026467440432124995
0.0030406621233798623
0.003459469121347313
0.0039002330157055258
0.004359583888185983
0.004833783125777464
0.0053188200495921135
0.005810545666483848
0.006304846293136133
0.006797842962013706
0.007286085036066114
0.00776669130260336
0.008237416403136947
0.008696646447474497
0.009143362974389965
0.009577127756124895
0.009998103467125947
0.010407117232688277
0.010805726189214451
0.011196268536602955
0.011581880532567482
0.01196648728204791
0.012354777152781521
0.012752171339286125
0.013164794508140922
0.01359944790509567
0.014063582771141205
0.014565264965556938
0.015113048857889028
0.015714637164320606
0.016358020938064228
0.016736757689887055
0.0004641654959875246
0.0005366545997733222
0.0006849953496905538
0.0008686760442251841
0.0010856879275073811
0.0013363525766106193
0.001620703474951574
0.0019382697924885427
0.0022880356817444186
0.002668419886895225
0.0030772688025997343
0.0035118664467005812
0.003968965130281057
0.0044448405220131335
0.004935374814232387
0.005436171527052693
0.005942702698279801
0.006450482933760217
0.006955255497522247
0.0074531669340911055
0.007940907361940168
0.008415801837571912
0.0088758561380889
0.009319774685293852
0.009746971244190111
0.010157589559789569
0.01055253334129025
0.010933500003129912
0.011303005218452062
0.011664393181655243
0.012021831807351198
0.012380298735364484
0.012745564054717651
0.013124174694411368
0.013523442094880003
0.013951431692621794
0.014416945625601713
0.014929418716818167
0.015497636708263315
0.01611145009261123
0.0164751966771161
0.00041758721854772286
0.000489985254500124
0.0006396571559355634
0.0008270265946778209
0.001050037040328573
0.0013088933636740713
0.0016035067366000557
0.001933274760462772
0.0022970291339651475
0.0026930019178614453
0.0031188062261938137
0.003571437378712329
0.004047300575974068
0.0045422700795447815
0.005051783133145618
0.005570969151438851
0.006094810523397791
0.006618325825899987
0.007136760556703744
0.007645767332399914
0.008141558738971539
0.008621022844883619
0.00908180063963767
0.009522332880714123
0.009941887977118827
0.010340580200216436
0.010719383931646407
0.011080143518931843
0.011425577672166442
0.01175927686595933
0.012085695472770545
0.012410142028666664
0.012738771965506419
0.013078585994800856
0.013437435367256062
0.013824032405825378
0.014247957751848658
0.014719586962273112
0.015248884761978446
0.01582782346907738
0.01617371581271515
0.00036705816546039367
0.0004392376548439514
0.0005901919697571831
0.0007814633380831128
0.0010109371210628372
0.0012786955847866963
0.0015845357746784882
0.0019277403207894582
0.0023070062545108593
0.0027203907924362577
0.0031652732843489234
0.0036383423348602473
0.004135616633017502
0.004652505813083077
0.005183914280609976
0.005724386589114322
0.006268287781937706
0.0068100069400655865
0.007344168109882899
0.007865831277084605
0.008370667992921396
0.008855101364484185
0.009316406864834195
0.009752776840700078
0.010163355343430864
0.010548251399697579
0.010908537609813607
0.011246239306275973
0.01156431829849343
0.011866654739242097
0.012158030980876752
0.012444121684567166
0.01273149387979258
0.013027619614474581
0.013340901731300944
0.013680710720793318
0.01405742384482634
0.014482392064538212
0.014966830718148085
0.01550509339449606
0.015829944095177524
0.0003134931842574633
0.0003852113091271203
0.0005371973628732479
0.0007323793982914128
0.0009685797399734104
0.0012457603168073777
0.001563626409775955
0.001921379781551565
0.002317618346386789
0.0027502512023507087
0.0032164324587110505
0.003712526689337862
0.004234117769647663
0.004776069358178013
0.005332640240441458
0.005897651604192116
0.006464696960260075
0.007027379756067162
0.0075795599278893466
0.008115589765554335
0.008630521595793387
0.0091202748925994
0.00958175672616097
0.01001293594687072
0.010412876437285057
0.010781737819928965
0.011120753218555872
0.01143219334443859
0.01171932566087569
0.01198637616317125
0.012238500634423912
0.012481770968947767
0.012723180961114832
0.012970674050724221
0.013233193243178478
0.013520750496047208
0.013844506286496057
0.014216787842041397
0.014650099403604145
0.015141422670649248
0.015441728962406361
0.00025817162064281364
0.00032901629425915465
0.0004814837092529457
0.0006802783218165774
0.0009231642337033876
0.001209997547279079
0.0015404335736080204
0.0019136509477437637
0.0023282080177575272
0.002781912755499022
0.00327171516138154
0.003793640263250999
0.004342778194475735
0.004913342555161379
0.005498801146116132
0.006092074731386256
0.006685791079436162
0.007272574447360384
0.00784534629324893
0.008397612092379823
0.008923712110301182
0.009419019865146705
0.009880079796112017
0.010304683525943981
0.010691890926495466
0.011042006923086201
0.011356527604654144
0.01163806980425692
0.011890297550040908
0.012117857214993134
0.012326330991129593
0.012522216333481906
0.01271293646934386
0.012906884897656413
0.013113504094367987
0.013343395344832795
0.013608449021253882
0.013921927479656369
0.014297619341248879
0.014735357203750698
0.015007333487762503
0.00020278058153040936
0.0002721048819176598
0.0004240842459860326
0.0006257613190208737
0.0008748620005180856
0.0011711676197166624
0.0015143510653176783
0.001903657304989671
0.0023376976296108913
0.0028142543601285615
0.0033301126855583532
0.003880946166737451
0.004461278868185496
0.0050645398134415
0.0056832154677141635
0.006309094293133867
0.006933585723070288
0.007548086086631663
0.00814435808230922
0.008714889525216256
0.009253201236089734
0.009754082330058837
0.010213741884591343
0.010629876987622772
0.011001666594204096
0.011329707476481756
0.011615912012818919
0.01186338851689179
0.012076323055250832
0.012259879093188118
0.012420127521689823
0.012564016353620602
0.012699385832593543
0.012835032141446672
0.012980820295844301
0.013147843752317171
0.013348620247352592
0.013597254177010682
0.01390876520123527
0.014286022319557673
0.014525663250827416
0.000149429147769922
0.00021627672467167968
0.00036624353897993743
0.0005694986414225975
0.0008237692126516489
0.0011288132965350704
0.0014844211933154037
0.0018900367174701587
0.0023444635629798253
0.0028455742740279228
0.003390054877822707
0.003973222064489679
0.004588944463544434
0.005229690591721617
0.0058867122444442605
0.006550355721605607
0.007210475838553351
0.00785691351903082
0.008479988877970787
0.00907096069654963
0.009622409926857912
0.01012851769454356
0.010585224541195024
0.01099027373984968
0.011343155140442299
0.01164497496188612
0.01189828119429433
0.012106874047334765
0.01227562752939885
0.012410343157713132
0.012517651035714523
0.012604968241679181
0.012680520131184923
0.0127534269653818
0.01283385641078889
0.01293324158354191
0.013064558490594434
0.013242602131270167
0.013483509447983731
0.01379333614424052
0.01399652021028688
0.00010061009085887869
0.00016363996390261315
0.00030937670764596167
0.0005121850761158853
0.0007698567806015412
0.0010821927590533094
0.0014492421367153644
0.001870845599236562
0.0023462044574429864
0.002873453538747264
0.003449283736039134
0.004068661493315894
0.004724689946653199
0.0054086452175577835
0.006110203094485846
0.006817846848589934
0.0075194207986402665
0.008202771636727215
0.008856406038773789
0.009470091840246643
0.010035341504999878
0.010545737674595818
0.010997086285896981
0.011387407397185747
0.011716793215718224
0.011987174307687774
0.012202038589223991
0.012366144883881668
0.012485265492070966
0.012565983523760734
0.012615561446472285
0.01264188999904081
0.012653520747791384
0.012659782232511654
0.012670978478711122
0.012698669422151877
0.012756037720304704
0.012858307081964343
0.01302259304175313
0.01325822722978604
0.013420851655668612
5.908885778050938e-05
0.00011650787757387559
0.0002549892638495333
0.00045450082251666176
0.0007129375239077635
0.001030219666737445
0.001406884329353425
0.0018434551053143262
0.0023398211622260453
0.002894629131978905
0.003504735920494704
0.0041647878505996355
0.004866990342689583
0.005601121330020854
0.00635481644293657
0.007114116696253042
0.007864228244004571
0.00859040649587657
0.009278854787536853
0.00991752674323666
0.010496741360795626
0.011009556486946742
0.011451887928327426
0.011822400284112841
0.012122222661519732
0.012354556070357356
0.012524239497753383
0.012637332826903875
0.012700760511136696
0.012722044742762343
0.012709143292125443
0.012670396910702738
0.01261458449617429
0.012551080977759954
0.012490112188801977
0.012443103790231915
0.012423122644047994
0.012445424004739601
0.012527680420941939
0.012682862615260155
0.012801069602096373
3.057129064331582e-05
7.721078923576023e-05
0.00020462964883883965
0.0003971078284836654
0.0006526161880995243
0.0009714125483898495
0.0013548441262745147
0.0018044959723819494
0.0023213448930512258
0.0029049076956259544
0.0035524585454898114
0.004258400771278743
0.005013892600783409
0.005806813243296735
0.006622123081940709
0.007442613814569718
0.008249976367091086
0.00902605062208374
0.009754083346988773
0.010419819202114513
0.011012287914378497
0.011524213918788816
0.011952046849661323
0.012295670845223462
0.012557889200721168
0.012743792402858684
0.012860109898754418
0.01291462379116164
0.01291569672864626
0.01287194136858905
0.012792039507783135
0.012684706154408039
0.012558787666797338
0.01242348101598176
0.012288663602806865
0.012165324584253031
0.012066096248445613
0.012005835265925401
0.012002127413069578
0.012070771045856984
0.012140888004578375
1.2350213586870457e-05
4.798586525197419e-05
0.00015981887329024442
0.0003405151442407833
0.0005883091038548393
0.0009040569392433194
0.0012902800044117771
0.0017501219940315423
0.002286194309064061
0.002899404988974454
0.0035878410757027037
0.004345830864620067
0.005163334894825531
0.006025814277217573
0.006914679126587276
0.00780833233604091
0.008683705012303962
0.009518069036479575
0.010290840607757343
0.010985091334732975
0.011588553655649307
0.012094026891943731
0.012499212168509672
0.012806101191187537
0.01302009033842888
0.013148996259714973
0.013202117363903811
0.013189441849142409
0.013121055533165678
0.013006765816375285
0.012855932024555589
0.012677479653348096
0.01248007227114765
0.012272418547497478
0.01206369875860764
0.011864103873150404
0.011685479869723488
0.011542091565767859
0.011451011860979179
0.0114303243342095
0.011448766016115292
0.0005351772246873525
0.0008465247153678514
0.001704723600639565
0.0036423369275177583
0.004459631407609139
0.006289260219427189
0.0072605450072586305
0.00918208940813807
0.010075223072256716
0.011604341974345789
0.01220802581268954
0.012694066252054248
0.013062607702100637
0.01331892121292
0.01347200554968037
0.013533163038189007
0.012372198857076926
0.012098148677888347
0.011083035250809477
0.010911762061259274
0.010777121928272975
4.453321299514701e-06
3.2579049199864425e-05
0.00012856084319036898
0.000296432024608571
0.0012346406634415736
0.002261507853284676
0.0029076808718727
0.005347868032778747
0.008234484059565835
0.010889112349055324
0.013514741437805284
0.013429151370292002
0.013288198337662723
0.01310271726653818
0.012882470168847335
0.012636257539653114
0.011822230106044837
0.01155348289966712
0.011302642137178373
0.010808049190032438
6.5791952545310435e-06
2.5862616050512216e-05
0.00010599572053634048
0.0002599757241700514
0.0004865685882083183
0.0007880774141482501
0.0011697879329482998
0.0016384777828815215
0.0022006612187001682
0.002860736654795293
0.003619101615193184
0.004470443723282648
0.005402499679736606
0.006395615780151069
0.007423379920048435
0.008454411340595666
0.009455123002999576
0.010392996862698962
0.011239749748564197
0.011973790371833656
0.012581573627484703
0.013057754334099348
0.013404318186781247
0.0136290368739675
0.013743638377043987
0.013762026465040673
0.01369877669044609
0.013568021052008978
0.013382741208297896
0.013154430354856408
0.01289305584482953
0.012607251472977744
0.01230467916220841
0.011992518601246414
0.011678064470989716
0.011369428170627471
0.011076366358823609
0.010811233733207755
0.010590134126070976
0.01043293309457747
0.010371374741068683
1.3377277811216783e-05
2.369146654002374e-05
8.923706641819238e-05
0.00023005295904264726
0.00044499926987987123
0.0007369002335259917
0.0011122882636661338
0.0015796478891416197
0.0021474471541210647
0.0028219831862772698
0.0036051302014950565
0.004492210571016394
0.005470360134632932
0.006517835031570818
0.007604652022082852
0.008694724272521524
0.009749282869670724
0.010730982255564061
0.011607847164893976
0.012356252287006937
0.012962425234847887
0.013422388791457938
0.013740634002038309
0.013928024401096991
0.013999456085024035
0.013971690874758124
0.01386161756539823
0.013685040389371187
0.013455979478348666
0.013186403461961895
0.012886291828320781
0.012563931093841215
0.012226370436380602
0.011879989230073926
0.011531154269605322
0.01118697121887266
0.01085612941451058
0.010549945401905982
0.010283173103993166
0.010078249217301691
0.00999052421060651