# vtk DataFile Version 2.0
time_10.vtk
ASCII
DATASET UNSTRUCTURED_GRID
POINTS   4141  float 
3.1128454178363468e-06        -7.634637462208421e-17        0.0                           
0.25000000000000266           2.9400725466882746e-06        0.0                           
0.5000028446103796            5.774690138024039e-16         0.0                           
0.75                          2.632576766034134e-06         0.0                           
1.0000025150221676            -3.1305788168518497e-15       0.0                           
1.25                          2.254971351367147e-06         0.0                           
1.5000021119838045            -8.880712694805544e-17        0.0                           
1.75                          1.7995132451459264e-06        0.0                           
2.000001630062288             -1.7037336088032117e-15       0.0                           
2.25                          1.2654398854486462e-06        0.0                           
2.5000010708018428            5.194434625301723e-17         0.0                           
2.75                          6.589351970361146e-07         0.0                           
3.000000443058654             6.870140271431098e-17         0.0                           
3.25                          -4.121275638107536e-16        0.0                           
3.4999997525858415            -3.985702593926948e-15        0.0                           
3.75                          -7.470992550978551e-07        0.0                           
3.9999989978507995            -8.135570023032341e-17        0.0                           
4.25                          -1.5233988443995917e-06       0.0                           
4.499998210754396             6.587303849937937e-15         0.0                           
4.75                          -2.33052042950605e-06         0.0                           
4.99999739425827              -2.5941502356759558e-17       0.0                           
5.25                          -3.1653315650653978e-06       0.0                           
5.499996550083068             -1.1384724263901144e-16       0.0                           
5.75                          -4.029809627570419e-06        0.0                           
5.9999956741854374            4.0930051585240293e-16        0.0                           
6.25                          -4.9322623322573e-06          0.0                           
6.4999947561562745            -2.3834585188516376e-15       0.0                           
6.75                          3.1045554050810397e-06        0.0                           
7.000003021092197             2.408886920206207e-07         0.0                           
7.250000256315527             2.836623922494155e-06         0.0                           
7.500002734366867             2.9004298339626254e-07        0.0                           
7.750000308151378             2.5071541229320167e-06        0.0                           
8.000002381364869             3.4629280467221384e-07        0.0                           
8.250000366079911             2.103968998744423e-06         0.0                           
8.50000195204431              4.0645584380214836e-07        0.0                           
8.750000426795841             1.6216002851350598e-06        0.0                           
9.000001443276911             4.6719016580399304e-07        0.0                           
9.250000487027078             1.0615053270073407e-06        0.0                           
9.500000858702597             5.254852622728511e-07         0.0                           
9.750000543918624             4.312102513176039e-07         0.0                           
10.00000020683452             5.787879592830263e-07         0.0                           
5.979978885314064e-07         0.29999973643155403           0.0                           
0.24999949131315788           0.300000631952092             0.0                           
0.5000006468852094            0.29999898605410974           0.0                           
0.7499987272310934            0.3000006755798214            0.0                           
1.0000006894001836            0.29999819875590367           0.0                           
1.2499979295557906            0.3000007162821189            0.0                           
1.5000007295136575            0.29999738194919595           0.0                           
1.7499971036330066            0.30000075606547116           0.0                           
2.0000007696109803            0.2999965376379554            0.0                           
2.2499962495850396            0.3000007978336352            0.0                           
2.500000812750543             0.29999566182264              0.0                           
2.7499953612563495            0.30000084477491284           0.0                           
3.0000008620959027            0.29999474406271026           0.0                           
3.249994426167709             0.3000008998120066            0.0                           
3.500000452380409             0.3000029965527398            0.0                           
3.750002907771372             0.3000005120575439            0.0                           
4.000000544956393             0.3000027105977224            0.0                           
4.250002601049707             0.3000006159744167            0.0                           
4.500000653654447             0.3000023577083198            0.0                           
4.750002223237574             0.3000007321422989            0.0                           
5.000000772442826             0.3000019276661054            0.0                           
5.25000176641883              0.3000008538969657            0.0                           
5.50000089456856              0.3000014172664118            0.0                           
5.750001229696577             0.3000009746974135            0.0                           
6.000001013769909             0.30000082985347926           0.0                           
6.250000618174736             0.3000010891993392            0.0                           
6.500001125471933             0.3000001723746599            0.0                           
6.749999939492173             0.3000011966942296            0.0                           
7.000001230856743             0.2999994559250032            0.0                           
7.249999205902034             0.30000129369339257           0.0                           
7.500001323040903             0.29999869200837614           0.0                           
7.749998429148362             0.3000013791223099            0.0                           
8.000001406179456             0.2999978932481047            0.0                           
8.249997620624626             0.3000014592035892            0.0                           
8.50000148557331              0.2999970665142108            0.0                           
8.749996784987003             0.30000153914177785           0.0                           
9.000001566814513             0.29999621227272105           0.0                           
9.249995920547967             0.3000016251469474            0.0                           
9.500001656282816             0.2999953243994498            0.0                           
9.749995018955143             0.30000172360875943           0.0                           
10.000001760193046            0.29999439025574365           0.0                           
3.0381534467789326e-06        0.6000006769036298            0.0                           
0.25000072014529234           0.600002867359241             0.0                           
0.5000027726864591            0.6000008161675645            0.0                           
0.7500008684388857            0.6000025616231817            0.0                           
1.0000024441920172            0.6000009799050863            0.0                           
1.2500010383762317            0.6000021835732913            0.0                           
1.5000020398743499            0.6000011588846937            0.0                           
1.750001220152285             0.6000017251013328            0.0                           
2.000001554051102             0.6000013428630202            0.0                           
2.2500014036231               0.6000011852707454            0.0                           
2.50000098799495              0.6000015224731188            0.0                           
2.750001580105274             0.6000005691266718            0.0                           
3.000000348201941             0.6000016912432639            0.0                           
3.250001744758925             0.599999885877679             0.0                           
3.4999996456473714            0.6000018470141855            0.0                           
3.7500018951426126            0.5999991490627775            0.0                           
3.9999988935035886            0.6000019854174982            0.0                           
4.250002028114074             0.599998370102098             0.0                           
4.499998103052709             0.600002110053556             0.0                           
4.7500021498493945            0.5999975596368029            0.0                           
4.99999728358123              0.6000022286107405            0.0                           
5.250002268243107             0.5999967229353781            0.0                           
5.499996438154195             0.600002349790109             0.0                           
5.750002392440345             0.5999958585444012            0.0                           
5.99999556300262              0.600002483323349             0.0                           
6.250002532256006             0.5999949580364632            0.0                           
[...]
POINT_DATA  4141
SCALARS Con float 1
LOOKUP_TABLE default
1.6238169419628164e-06
1.7358078732940168e-06
1.9572776000410145e-06
2.2150559911634705e-06
2.5051149571382e-06
2.828084185443569e-06
3.1844262662628917e-06
3.5740531488131077e-06
3.996271004523337e-06
4.449771001389362e-06
4.9326448683034095e-06
5.442421902160421e-06
5.976124310971619e-06
6.530336216912777e-06
7.101271438507733e-06
7.68482592129711e-06
8.276602706044798e-06
8.871876726185085e-06
9.466718316656472e-06
1.0066347914106888e-05
1.0735893310415111e-05
1.1406461503123842e-05
1.201031424301627e-05
1.2584068782607389e-05
1.3156679914104333e-05
1.3726467884806849e-05
1.429428852432677e-05
1.4861716889302753e-05
1.543139025565531e-05
1.600680873031988e-05
1.6592237817486884e-05
1.7192622628879417e-05
1.7813507868341187e-05
1.8460974839290755e-05
1.914157088967108e-05
1.9862239180364998e-05
2.063023458058452e-05
2.1452896426647214e-05
2.233562573256637e-05
2.325453937688364e-05
2.378354875259067e-05
1.64725383744493e-06
1.7617843087167822e-06
1.987645746450154e-06
2.2501357629691545e-06
2.545236361229491e-06
2.8734867930831227e-06
3.2352602942782964e-06
3.630374647622732e-06
4.05804187819685e-06
4.516862889031849e-06
5.0048474446505125e-06
5.519458471835573e-06
6.057677626885355e-06
6.616091772996709e-06
7.191000093297228e-06
7.778557090338574e-06
8.374994195559247e-06
8.977329557182363e-06
9.584516353678712e-06
1.021125641671495e-05
1.0843998332351411e-05
1.1465278519944498e-05
1.2068023392347013e-05
1.2660087791376319e-05
1.3239111289508531e-05
1.3811776529563584e-05
1.4380533321294932e-05
1.4948105345661368e-05
1.5517667815519885e-05
1.609305420862559e-05
1.6678752939785022e-05
1.72798805884892e-05
1.7902126747123768e-05
1.855170061390555e-05
1.9235266780960358e-05
1.995987820088754e-05
2.0732891567580753e-05
2.1561742615571564e-05
2.2451891522830565e-05
2.3379851533200646e-05
2.3914681336970948e-05
1.6340382394661665e-06
1.7485534529774906e-06
1.974940643502852e-06
2.238613392073206e-06
2.5354596843536905e-06
2.865982921959098e-06
3.2305073658615076e-06
3.6287991640335525e-06
4.060017878104556e-06
4.522714987150134e-06
5.0148600320688535e-06
5.533894196300466e-06
6.07681498487571e-06
6.640294590141937e-06
7.2208532271349286e-06
7.81511763487004e-06
8.420302258279985e-06
9.034763208923837e-06
9.660550057497806e-06
1.0281313443601673e-05
1.0874730727316771e-05
1.1466083526422766e-05
1.2073971133541916e-05
1.2672851092210908e-05
1.3259373999383005e-05
1.3835350572926819e-05
1.440461663698675e-05
1.4970631615500828e-05
1.553712986114593e-05
1.610829110420478e-05
1.6688846071599303e-05
1.7284090898136256e-05
1.789987542045381e-05
1.854255783970806e-05
1.9218961139426743e-05
1.993630988731839e-05
2.070215208264361e-05
2.1524136924203945e-05
2.240799075189393e-05
2.3330352190316944e-05
2.3862163443471068e-05
1.6111524601499865e-06
1.7258882423671716e-06
1.9532585441035387e-06
2.2188952391241448e-06
2.5186519538604904e-06
2.8529583195067393e-06
3.222057666173229e-06
3.6256266961530397e-06
4.0627321231685475e-06
4.531832612321487e-06
5.0308102875050475e-06
5.557031650267737e-06
6.107439918131323e-06
6.67868318547614e-06
7.267282038648857e-06
7.869835960769263e-06
8.483145591262252e-06
9.104224546359482e-06
9.725696909521327e-06
1.0338251180033775e-05
1.0941041024315165e-05
1.1537067575933991e-05
1.2130647166705128e-05
1.2723311826465343e-05
1.3307523140774808e-05
1.3881984672614987e-05
1.4448390525342885e-05
1.5009861114329571e-05
1.5570157728334237e-05
1.6133623963996678e-05
1.6705179420594247e-05
1.7290318981489685e-05
1.789509390605484e-05
1.8526084896729785e-05
1.9190356747534523e-05
1.989540789710783e-05
2.0649097313630178e-05
2.145943013635761e-05
2.2332533848163584e-05
2.3245709732915137e-05
2.3773047736478332e-05
1.57878403391681e-06
1.6938433375982866e-06
1.9226615019065356e-06
2.191124795165021e-06
2.4950262622352312e-06
2.8346946149603434e-06
3.2102548374122513e-06
3.621253548935747e-06
4.0666180812382416e-06
4.544661870215294e-06
5.053116278564661e-06
5.589192218072718e-06
6.1496665892755165e-06
6.730991368094456e-06
7.329410927463415e-06
7.94102926042737e-06
8.561755173130285e-06
9.186493955224162e-06
9.809490633972432e-06
1.0425948522216208e-05
1.1033161358178947e-05
1.1632154517432972e-05
1.222466141760764e-05
1.2810153761080651e-05
1.3387694431982565e-05
1.3955826248916856e-05
1.4515292045659063e-05
1.5068460040237166e-05
1.561882234930499e-05
1.6170689545794984e-05
1.6729081244305153e-05
1.7299662281830622e-05
1.78887090391113e-05
1.8503068132363316e-05
1.9150118044097925e-05
1.983772206153479e-05
2.057416093430955e-05
2.136792802864952e-05
2.2225729075151662e-05
2.3125767652945865e-05
2.3646628870545503e-05
1.5366287346502802e-06
1.6521603187966437e-06
1.8829428698950394e-06
2.1551509754269197e-06
2.4644907440415048e-06
2.8111559122963633e-06
3.1951146680903665e-06
3.6157406546331083e-06
4.071773128263839e-06
4.5613232486125e-06
5.081903909937884e-06
5.6304854343311315e-06
6.203571787581197e-06
6.797286404460445e-06
7.40745078360594e-06
8.029621484568919e-06
8.65900346154133e-06
9.290539971268872e-06
9.919266866274915e-06
1.0541015515935362e-05
1.1153348511422527e-05
1.175534605805795e-05
1.2346913214537465e-05
1.29280178834706e-05
1.349817208222323e-05
1.4057392761737776e-05
1.4606525613106864e-05
1.5147710254657613e-05
1.5684241070657103e-05
1.6220377962225977e-05
1.6761211275958243e-05
1.731257121339049e-05
1.7880974544050982e-05
1.847357481934553e-05
1.9098126071505102e-05
1.9762937594048344e-05
2.0476815423343863e-05
2.124886576164819e-05
2.20865287087296e-05
2.2969190315040897e-05
2.3481449030089022e-05
1.4843722734230771e-06
1.6005537129029454e-06
1.8338802207447499e-06
2.1108194348687557e-06
2.4269593458375975e-06
2.7823232970768434e-06
3.1766842783406177e-06
3.6091995473124326e-06
4.0783738870206105e-06
4.58206023445792e-06
5.11748970694295e-06
5.6813189770563445e-06
6.2696978558734416e-06
6.878349233134795e-06
7.502643636924864e-06
8.137667162685339e-06
8.778319537791544e-06
9.419495933317381e-06
1.0056423601571217e-05
1.0685123225113853e-05
1.1302702755962636e-05
1.1907417438849342e-05
1.2498364452006791e-05
1.3075100570380883e-05
1.363758542159546e-05
1.4186254884819247e-05
1.4722382317531295e-05
1.52482229733645e-05
1.576709430752197e-05
1.6283301791436893e-05
1.680205071952936e-05
1.7329366999824058e-05
1.787203984675128e-05
1.8437574031420413e-05
1.903415565468023e-05
1.9670612094045764e-05
2.035636982855117e-05
2.1101265906529045e-05
2.1913629509180228e-05
2.277431297845941e-05
2.3275624055337655e-05
1.4217234608074994e-06
1.538762961905956e-06
1.7752744284854932e-06
2.057999182408404e-06
2.382372619715622e-06
2.748209331595987e-06
3.155049447227233e-06
3.6017959939527254e-06
4.086673278099941e-06
4.6072295187443195e-06
5.160356975401178e-06
5.742339080488423e-06
6.3489139199435546e-06
6.97535728843933e-06
7.616579377314647e-06
8.267244840573387e-06
8.921927791616486e-06
9.575333686101024e-06
1.0222579442432856e-05
1.0859479653635516e-05
1.1482761865164268e-05
1.2090116971851011e-05
1.268010568222175e-05
1.3252038098215178e-05
1.3805890722863218e-05
1.4342372544033487e-05
1.4863021791729164e-05
1.537033055853093e-05
1.586777877892733e-05
1.6359830864458293e-05
1.6851882541314702e-05
1.7350209743597814e-05
1.7861919196785206e-05
1.8394912208708354e-05
1.8957860195738124e-05
1.9560176865714995e-05
2.0211990949922326e-05
2.092398031131508e-05
2.1705504321878204e-05
2.2539178740808703e-05
2.302694001846235e-05
1.3484764178826473e-06
1.4666048404481559e-06
1.7069920799378955e-06
1.9966152336267986e-06
2.3307156861934466e-06
2.708862986162529e-06
3.1303304601788195e-06
3.5937311759379028e-06
4.096974642035059e-06
4.637260636337895e-06
5.2110966620334586e-06
5.8143392414033545e-06
6.442261859148276e-06
7.089645800123429e-06
7.750902878845527e-06
8.420224361648782e-06
9.091772125788831e-06
9.759901935690882e-06
1.0419410470166523e-05
1.1065768942224549e-05
1.1695295126149785e-05
1.2305240233693715e-05
1.2893786951418235e-05
1.3460017498788195e-05
1.400388527960708e-05
1.4526225251316857e-05
1.5028798611777363e-05
1.5514333836609297e-05
1.5986550949094824e-05
1.6450153856979444e-05
1.6910804447368534e-05
1.7375084396382578e-05
1.785046773547064e-05
1.834529624610514e-05
1.8868771897295007e-05
1.943094972706324e-05
2.0042730374316032e-05
2.0715723207237075e-05
2.1460454313074182e-05
2.2261605098644265e-05
2.2732917680349362e-05
1.26458176283908e-06
1.3840387383290851e-06
1.6290152848768468e-06
1.926680071253295e-06
2.272035413838756e-06
2.664370981854525e-06
3.1026639967521917e-06
3.585212762594749e-06
4.1095837170348585e-06
4.672595566323567e-06
5.27032897671281e-06
5.898163091968879e-06
6.5508466090176285e-06
7.222600603208796e-06
7.907260724275847e-06
8.598453213156533e-06
9.28980321602673e-06
9.975170763835376e-06
1.0648887462627158e-05
1.1305975947028143e-05
1.1942321013636295e-05
1.2554779062462923e-05
1.3141224364488778e-05
1.3700559624269618e-05
1.423270828757002e-05
1.4738611104791794e-05
1.5220229731826397e-05
1.5680547964499072e-05
1.6123570361258838e-05
1.655430261401459e-05
1.6978729416035828e-05
1.7403791811052858e-05
1.783737003094287e-05
1.828828233644896e-05
1.8766295639289396e-05
1.9282144165548222e-05
1.9847550569384013e-05
2.0475130385673395e-05
2.1176686324918754e-05
2.1939275458477752e-05
2.239090881181163e-05
1.1702372890757742e-06
1.2912429051149342e-06
1.5414984613412806e-06
1.8483282215423522e-06
2.206450267719249e-06
2.614843792181047e-06
3.072171153490637e-06
3.5764030798032295e-06
4.1247460743511465e-06
4.71361455991916e-06
5.3386238182660715e-06
5.9946225509128635e-06
6.675762736536662e-06
7.375616372658436e-06
8.08733507625568e-06
8.803852070001316e-06
9.51811674044454e-06
1.0223345678333275e-05
1.0913276584859264e-05
1.1582392864427397e-05
1.2226109942908348e-05
1.2840904100951892e-05
1.3424383829244622e-05
1.3975319749304971e-05
1.4493642314210954e-05
1.4980425720273594e-05
1.5437858897874753e-05
1.586922116536712e-05
1.627884792448973e-05
1.667209970721095e-05
1.705533576031625e-05
1.7435895363557112e-05
1.7822096220169307e-05
1.822325231367131e-05
1.86497077794078e-05
1.9112892251189788e-05
1.962537721191253e-05
2.0200824338966502e-05
2.085240463457922e-05
2.1569854928371938e-05
2.1998230118652925e-05
1.0659872534559477e-06
1.1887037631327416e-06
1.444828519255923e-06
1.7618480354385764e-06
2.134154223133821e-06
2.560393879994714e-06
3.0389113866317733e-06
3.5673517146069956e-06
4.142564014510207e-06
4.760544512029074e-06
5.416410712053232e-06
6.104420090549657e-06
6.8180406460135915e-06
7.550079036406494e-06
8.29286199974709e-06
9.038472849697593e-06
9.779016281581871e-06
1.0506910153453617e-05
1.1215159967365362e-05
1.1897618278750139e-05
1.2549186091521502e-05
1.3165963593949343e-05
1.374533422109941e-05
1.4285997684859059e-05
1.478796065696916e-05
1.5252497736699737e-05
1.568209617404574e-05
1.6080395543031622e-05
1.6452127581667288e-05
1.6803065682982207e-05
1.7139987696529046e-05
1.7470661983486857e-05
1.780385768477517e-05
1.8149381179907065e-05
1.8518145831615787e-05
1.892226151038962e-05
1.9375137612394726e-05
1.9891494157532473e-05
2.048592124977419e-05
2.115113059330993e-05
2.1552319791002564e-05
9.52840900885516e-07
1.077312834409949e-06
1.3396893704676162e-06
1.6677097957174062e-06
2.0554084436904755e-06
2.501092420040184e-06
3.002807481396272e-06
3.5579009245055934e-06
4.162887198680051e-06
4.813345934841888e-06
5.50386881061268e-06
6.228055296757122e-06
6.97858042502968e-06
7.74733497592225e-06
8.525642203054416e-06
9.304532866534336e-06
1.007506692429089e-05
1.082867118417707e-05
1.1557468999172165e-05
1.2254577099116094e-05
1.2914333665229181e-05
1.3532472469824488e-05
1.4106204626651554e-05
1.4634247989016711e-05
1.511678996971387e-05
1.5555420401719942e-05
1.5953033416560383e-05
1.6313729055049148e-05
1.664272246610349e-05
1.694626589760595e-05
1.7231602065841868e-05
1.75069475751181e-05
1.7781516485056615e-05
1.806558360454274e-05
1.8370587492934484e-05
1.870926536898122e-05
1.9095817102355337e-05
1.9545985758911632e-05
2.0075789013185997e-05
2.0681184371864036e-05
2.1050922243821496e-05
8.323952627333092e-07
9.584679464672697e-07
1.2271198298122367e-06
1.5665810459635494e-06
1.9705135588226925e-06
2.4369047776191847e-06
2.963550044212085e-06
3.547562274927375e-06
4.1851721424928395e-06
4.8715700648373335e-06
5.600799883943904e-06
6.3657237991743096e-06
7.158085811260095e-06
7.96866879938201e-06
8.787555169039435e-06
9.604465263251508e-06
1.0409155109595118e-05
1.1191828443276699e-05
1.1943546002644682e-05
1.2656563005038208e-05
1.3324617140375844e-05
1.3943094781366561e-05
1.4509126822377804e-05
1.5021574971837468e-05
1.5480967147184476e-05
1.5889369493157092e-05
1.6250241223437664e-05
1.6568284681798708e-05
1.6849308133504732e-05
1.7100125285055275e-05
1.732848453320963e-05
1.7543060426311607e-05
1.775348486044298e-05
1.797044455854222e-05
1.8205817962929092e-05
1.8472877724130924e-05
1.878651255755699e-05
1.9163402326173437e-05
1.9620946433649806e-05
2.0158592345984074e-05
2.0492326216979895e-05
7.069562631494991e-07
8.341674088126757e-07
1.108561782871209e-06
1.4593219920977312e-06
1.879760349861544e-06
2.367594624251794e-06
2.9204619492553463e-06
3.5353519895867786e-06
4.208307669195319e-06
4.934185239341586e-06
5.7064673116994044e-06
6.517189542024341e-06
7.356985629006612e-06
8.215274790226274e-06
9.080585959552526e-06
9.940986562703884e-06
1.078458961445529e-05
1.1600084197529991e-05
1.2377234805588894e-05
1.3107311212651405e-05
1.378340634698422e-05
1.4400626948203025e-05
1.4956155478561738e-05
1.544919976509423e-05
1.5880846661231928e-05
1.6253874471581507e-05
1.657252161610252e-05
1.684227428401946e-05
1.7069676995228603e-05
1.7262193981156437e-05
1.7428125009047344e-05
1.7576592243182e-05
1.7717593220161843e-05
1.7862127158832657e-05
1.8022391327814308e-05
1.8212036828398276e-05
1.8446487676196022e-05
1.8743209988426265e-05
1.9120885151700264e-05
1.958263871498039e-05
1.9875609340157753e-05
5.796358443216809e-07
7.070832527650837e-07
9.858816655092026e-07
1.3469648707676431e-06
1.7833601981198179e-06
2.2926102879736707e-06
2.8723451121667094e-06
3.5196024390215856e-06
4.2304028407383835e-06
4.999363892263794e-06
5.819415665852104e-06
6.681652001710329e-06
7.575362379494504e-06
8.488260876087977e-06
9.406895963032469e-06
1.0317221500887584e-05
1.1205261862025198e-05
1.2057801734442768e-05
1.286303556855664e-05
1.3611094818709264e-05
1.4294421516619617e-05
1.4907958621538005e-05
1.5449164599125868e-05
1.591787588166311e-05
1.6316070149796878e-05
1.664754446912121e-05
1.6917604208935188e-05
1.7132753866365686e-05
1.730044158318649e-05
1.7428885611847328e-05
1.7526967890917626e-05
1.7604227544332544e-05
1.7670941506874452e-05
1.7738283270342064e-05
1.7818583558253526e-05
1.7925660944018735e-05
1.8075240315092003e-05
1.8285363175383272e-05
1.857581803707998e-05
1.895355796121437e-05
1.9200917018372684e-05
4.543976106829145e-07
5.805784911658023e-07
8.613506950200179e-07
1.2306507134071016e-06
1.6813484502340626e-06
2.210942395839233e-06
2.8172794015737846e-06
3.4977293309924646e-06
4.248537250911159e-06
5.064248629589991e-06
5.937264738379579e-06
6.857601818160114e-06
7.812895186206426e-06
8.788682424541328e-06
9.768953215556921e-06
1.0736916515347186e-05
1.167589868423184e-05
1.2570278258649151e-05
1.3406327351731171e-05
1.4172886992872723e-05
1.4861787671272638e-05
1.546802598659191e-05
1.598968273716107e-05
1.642765392052176e-05
1.6785243772049597e-05
1.706770708148978e-05
1.7281775587239373e-05
1.743525879657796e-05
1.753670282135492e-05
1.7595176320423926e-05
1.76201585925119e-05
1.7621543777674584e-05
1.7609749858228933e-05
1.759594247554138e-05
1.759234638938467e-05
1.761266398191829e-05
1.7672597949873622e-05
1.7790432715660755e-05
1.798687127313464e-05
1.8272769680446856e-05
1.8469733444595574e-05
3.3602248897920485e-07
4.586518577179718e-07
7.375641817645617e-07
1.1115809965601124e-06
1.5735088060478013e-06
2.120970030503018e-06
2.752420001101696e-06
3.465983003259612e-06
4.2585028927644175e-06
5.124697526873314e-06
6.056506489765311e-06
7.042698479724385e-06
8.068842182259796e-06
9.117657987003773e-06
1.0169771532431884e-05
1.1204766705403613e-05
1.2202449578251159e-05
1.3144113700134702e-05
1.4013682911329131e-05
1.4798555985871915e-05
1.5490094950283946e-05
1.608371935200869e-05
1.65786720224987e-05
1.6977523156716726e-05
1.728553075087856e-05
1.7509958847218327e-05
1.765943145912819e-05
1.774338695921823e-05
1.7771674591103342e-05
1.7754296422004225e-05
1.7701300060963427e-05
1.7622814761831867e-05
1.752921902654069e-05
1.7431418275707056e-05
1.734124212544344e-05
1.727194098691955e-05
1.7238800269091195e-05
1.725986781715767e-05
1.735624756896237e-05
1.7543124473992235e-05
1.7685232406144874e-05
2.2981910726400362e-07
3.4572027953618457e-07
6.174320087597582e-07
9.910197901969872e-07
1.4592268561132309e-06
2.0202704354508705e-06
2.6737870781587285e-06
3.4192317176871754e-06
4.254566355754194e-06
5.175062001574731e-06
6.172322752999916e-06
7.233684997475651e-06
8.342099151102482e-06
9.476592208458574e-06
1.0613292066766134e-05
1.1726937844768671e-05
1.2792655867502914e-05
1.3787761523645233e-05
1.4693295030473093e-05
1.5495124239047472e-05
1.6184439812226487e-05
1.6757715192524532e-05
1.7216171329020306e-05
1.756494425924969e-05
1.7812089895427207e-05
1.7967600624979175e-05
1.8042534083180782e-05
1.8048325044753822e-05
1.799630527380764e-05
1.7897438095336458e-05
1.7762243047303722e-05
1.7600894031065916e-05
1.7423458026089006e-05
1.724026887356589e-05
1.706240861372808e-05
1.6902309593857866e-05
1.6774452997288863e-05
1.6696140031672673e-05
1.668813548689097e-05
1.6768970911232196e-05
1.6851976119717006e-05
1.4210782210421052e-07
2.4677620516758646e-07
5.041785482763699e-07
8.700438076308846e-07
1.337406436412425e-06
1.905724388299581e-06
2.5764476340599693e-06
3.351139172287544e-06
4.229630212618422e-06
5.208317494622054e-06
6.278736042187557e-06
7.426604630881302e-06
8.631555944862616e-06
9.86770860483852e-06
1.1105107045299111e-05
1.2311897201941735e-05
1.345691639846912e-05
1.4512274161521389e-05
1.5455512118742043e-05
1.6270970479538838e-05
1.695028454259123e-05
1.749200489672491e-05
1.79005796640097e-05
1.81849711884789e-05
1.8357152897882713e-05
1.8430737735390075e-05
1.8419828034707225e-05
1.8338201657084534e-05
1.8198787169208875e-05
1.801343349859184e-05
1.7792923093466257e-05
1.754716422410085e-05
1.7285549029514846e-05
1.701743342708413e-05
1.6752731135687368e-05
1.6502626872231593e-05
1.6280402249505226e-05
1.6102398528966463e-05
1.5988515370847886e-05
1.5960104520863623e-05
1.5979935705593012e-05
1.2371206268541758e-06
1.810160650379669e-06
3.301578193343805e-06
6.422941622619557e-06
7.668949779326862e-06
1.0333222655271501e-05
1.168122514736319e-05
1.4211966311517612e-05
1.532240205493835e-05
1.7106531917024236e-05
1.775762287256719e-05
1.8248250569649064e-05
1.858774043137762e-05
1.8790247549202973e-05
1.8872672470545813e-05
1.885283069213873e-05
1.7110869933463658e-05
1.676598426324995e-05
1.5515451621127885e-05
1.5304586343264006e-05
1.5134039952720678e-05
8.177062767807225e-08
1.7684618874188896e-07
4.186275593893533e-07
7.736402336963364e-07
2.4968430893310708e-06
4.2266809180750405e-06
5.270012196435623e-06
8.983177143578201e-06
1.2987037921112085e-05
1.6292646952859068e-05
1.8748103757631726e-05
1.857454202374482e-05
1.8346402340227988e-05
1.8076025367872988e-05
1.7774008454933574e-05
1.7449532088174213e-05
1.6423229397794158e-05
1.6092177002576896e-05
1.5784575787250683e-05
1.5174647695578485e-05
5.161861273233049e-08
1.3410130767220923e-07
3.5602454092720116e-07
6.944786926345509e-07
1.144781562868953e-06
1.7094414825548917e-06
2.3944942512173996e-06
3.2067524942482202e-06
4.150883580438707e-06
5.226574235915658e-06
6.4259750288841055e-06
7.731834086628776e-06
9.1167539122594e-06
1.0544001876886925e-05
1.1969978886572976e-05
1.3348165736539257e-05
1.4633812844287849e-05
1.578850704676959e-05
1.678368606706611e-05
1.7602463350947463e-05
1.8239674002716367e-05
1.8700412342048683e-05
1.8997600817797384e-05
1.914924055937987e-05