# vtk DataFile Version 2.0
time_10.vtk
ASCII
DATASET UNSTRUCTURED_GRID
POINTS   4141  float 
7.323127156609111e-05         1.1421026892344059e-17        0.0                           
0.24999999999999864           6.979694475081657e-05         0.0                           
0.5000678152634941            -5.2566926232744406e-18       0.0                           
0.75                          6.32487269234242e-05          0.0                           
1.0000606393120384            -1.3601671511813597e-18       0.0                           
1.25                          5.472175911197172e-05         0.0                           
1.5000514014849695            2.629543018620846e-17         0.0                           
1.75                          4.402422530384891e-05         0.0                           
2.0000399684064822            1.9237575439789386e-16        0.0                           
2.25                          3.1141842230669686e-05        0.0                           
2.500026385751675             9.209825261449235e-18         0.0                           
2.750000000000001             1.6247499646590153e-05        0.0                           
3.000010908307662             1.455700106153032e-17         0.0                           
3.25                          2.833062157452567e-17         0.0                           
3.49999360980566              1.0335961507996423e-16        0.0                           
3.75                          -1.9203796138149003e-05       0.0                           
3.9999742508617437            2.003883456086498e-17         0.0                           
4.25                          -3.9173812258537644e-05       0.0                           
4.499953951680711             -4.9381922120841956e-18       0.0                           
4.75                          -6.010441214951118e-05        0.0                           
4.99993271813592              5.1135845833210986e-17        0.0                           
5.249999999999999             -8.193734745914582e-05        0.0                           
5.499910578236664             2.0996906340824742e-16        0.0                           
5.75                          -0.00010473515743859469       0.0                           
5.999887417253034             3.2468694496657483e-17        0.0                           
6.249999999999999             -0.00012872074254806085       0.0                           
6.499862959191422             -6.728287364125274e-16        0.0                           
6.75                          7.298214909842481e-05         0.0                           
7.000071350610809             4.783031078140067e-06         0.0                           
7.250005238726754             6.757377597779107e-05         0.0                           
7.500065397065383             6.2221382576967095e-06        0.0                           
7.750006744943018             6.040069854862488e-05         0.0                           
8.00005756025949              7.838457746784902e-06         0.0                           
8.250008402981608             5.115884307967465e-05         0.0                           
8.500047590067297             9.551733179345522e-06         0.0                           
8.75001012971539              3.971344258411393e-05         0.0                           
9.000035410882083             1.1277993003512243e-05        0.0                           
9.250011842705998             2.610591890067181e-05         0.0                           
9.50002112077521              1.2940054338011927e-05        0.0                           
9.750013467264031             1.0536149950614915e-05        0.0                           
10.000004936849411            1.4466942483300517e-05        0.0                           
1.5051306527879995e-05        0.2999930753321725            0.0                           
0.24998683596969923           0.30001606821414495           0.0                           
0.5000165068343295            0.2999739009769318            0.0                           
0.7499672464916532            0.3000173596856444            0.0                           
1.0000177747192973            0.29995360115482933           0.0                           
1.2499466206314054            0.30001858835553463           0.0                           
1.5000189911202535            0.29993235985886824           0.0                           
1.7499250811052083            0.3000198013602212            0.0                           
2.0000202145693633            0.2999102162940398            0.0                           
2.249902619884452             0.30002107221357044           0.0                           
2.5000215226923856            0.2998870575783606            0.0                           
2.74987906904221              0.300022481393899             0.0                           
3.000022994863018             0.29986260686999033           0.0                           
3.249854100404349             0.3000241014289862            0.0                           
3.5000086912496364            0.30007061156840253           0.0                           
3.7500688220747085            0.3000104631115226            0.0                           
4.000011425858097             0.3000646773086299            0.0                           
4.250062293085596             0.3000134819003791            0.0                           
4.500014564059289             0.3000568429109327            0.0                           
4.750053760065524             0.30001680608858944           0.0                           
5.000017953248284             0.3000468532252201            0.0                           
5.250043025612018             0.3000202683297939            0.0                           
5.5000214241735845            0.30003462874773096           0.0                           
5.750030067893542             0.30002370469090045           0.0                           
6.000024819638103             0.3000202527106514            0.0                           
6.250015011699066             0.3000269812025228            0.0                           
6.500028028064754             0.30000387520055466           0.0                           
6.749998015695754             0.3000301222089645            0.0                           
7.000031138562823             0.2999857678169262            0.0                           
7.2499793921353906            0.30003300252957416           0.0                           
7.500033875430491             0.2999662118281255            0.0                           
7.749959436951063             0.3000355572793826            0.0                           
8.000036375184445             0.2999455620814075            0.0                           
8.249938472651687             0.3000379875927709            0.0                           
8.500038792423377             0.2999240011818342            0.0                           
8.749916617563485             0.30004042789413093           0.0                           
9.000041270649279             0.2999015346068454            0.0                           
9.249893820780931             0.3000430368973664            0.0                           
9.500043972341132             0.2998779963018561            0.0                           
9.749869858810403             0.30004597547435885           0.0                           
10.000047052813555            0.2998530531081512            0.0                           
7.098698019812674e-05         0.6000129947898816            0.0                           
0.25001428568088385           0.6000676024931384            0.0                           
0.500065640588745             0.6000171070816879            0.0                           
0.7500186244789725            0.6000610980534048            0.0                           
1.0000584913780404            0.6000218320797998            0.0                           
1.2500235040569112            0.6000525582224778            0.0                           
1.5000492188976546            0.600026936552652             0.0                           
1.7500286778693077            0.600041779530954             0.0                           
2.000037679861151             0.6000321645233557            0.0                           
2.250033892864876             0.6000287357584216            0.0                           
2.5000239019459025            0.6000372830891428            0.0                           
2.7500389342298144            0.6000135433925223            0.0                           
3.0000080330887715            0.6000421415916072            0.0                           
3.2500437021079707            0.5999964170003061            0.0                           
3.4999903440336295            0.6000467139563381            0.0                           
3.7500481403945               0.5999777138454768            0.0                           
3.999971175066067             0.6000508286042656            0.0                           
4.250052108382635             0.59995771104789              0.0                           
4.4999508079219765            0.6000545825550011            0.0                           
4.750055792002624             0.5999366968233457            0.0                           
4.999929497005547             0.6000581954569068            0.0                           
5.250059406758817             0.5999148125358338            0.0                           
5.499907322581131             0.6000618943450876            0.0                           
5.7500631894402305            0.5998920167804326            0.0                           
5.99988418194867              0.6000659285268488            0.0                           
6.250067390002343             0.5998680848063764            0.0                           
[...]
POINT_DATA  4141
SCALARS Con float 1
LOOKUP_TABLE default
0.0006073826757259835
0.000675617855259963
0.0008096190897066182
0.0009679503805722961
0.0011488127988138045
0.001353025045552694
0.001581247013681676
0.0018337490110330657
0.002110372095064405
0.0024105171578417822
0.002733150411575362
0.0030768230083381746
0.0034397015953182147
0.0038196041509281705
0.004214031656487194
0.004620178902516709
0.005034916938901295
0.005454753187630918
0.005876861128178582
0.006308653735543685
0.006816787575136419
0.007329879320164306
0.007778511178182826
0.008204335533213014
0.008634274711833055
0.009066536395559929
0.009501346553637746
0.009939438726103747
0.010382371359113397
0.010832355487387665
0.011292165763487872
0.011765065549947643
0.012254744966607231
0.012765263731551311
0.013300994955814136
0.01386656696011458
0.014466795996889298
0.015106527436084165
0.01578923059796615
0.016497057551128243
0.0169052050712319
0.0006186397103857543
0.0006886036530433747
0.0008254422380643882
0.0009868867839166932
0.0011711430309747988
0.0013789740978781238
0.0016109820538369576
0.0018673751582900066
0.0021479315489215845
0.0024519916252642763
0.0027784677295565278
0.0031258697096579417
0.0034923452712832545
0.003875734482860155
0.004273640690730995
0.004683536312402823
0.005102954623436507
0.005530156254138791
0.005965471023063784
0.006423559534889265
0.006892968426177144
0.007357111602327149
0.007808531108139178
0.008253317466542282
0.008690735656431742
0.009126849846213486
0.009563517007321486
0.010002583618117263
0.010446125370517723
0.010896657297594314
0.011357151802223336
0.011831019270276228
0.012322070259125422
0.0128344699653616
0.013372687631474573
0.01394144090992182
0.014545629159463055
0.015190175880008679
0.015878594122058637
0.016593299735266492
0.01700590022401267
0.0006121478162126872
0.0006819804521424435
0.0008189446289730598
0.0009808992092633496
0.00116601662703886
0.0013750512579725515
0.0016085883707053186
0.0018668173877813997
0.0021494978093944705
0.002455955173548982
0.0027850963059014417
0.003135444589441701
0.0035051981148773704
0.0038923177379788882
0.004294663442002774
0.0047102173067849465
0.005137520097872804
0.005576212386210149
0.006029199011635186
0.0064820847747696355
0.006911748575273343
0.0073441757008943735
0.007800063605728573
0.008253158237879187
0.008699169439989853
0.00913980822693421
0.009578283483243787
0.0100172073306186
0.010459218560835723
0.01090717987130241
0.011364296388053885
0.011834149825302807
0.012320693847785408
0.012828227670496089
0.013361356928711094
0.013924945037737314
0.014524050558648234
0.01516376823310573
0.015847802272418703
0.01655858023762116
0.01696896708573028
0.0006008355176202673
0.0006706215950875922
0.0008078369792278395
0.0009706199413886088
0.0011571522473312731
0.001368166117209078
0.001604217646973758
0.0018654618699444844
0.0021516219517532763
0.0024619885721796847
0.002795439734380452
0.0031504823500602937
0.0035253186788521
0.003917942530904633
0.004326269674236333
0.0047483034848457934
0.005182216609805299
0.00562626331285373
0.006074392115178977
0.006517855091740281
0.006956546154290384
0.0073942256249643476
0.007835779512944497
0.008283037273420732
0.008728038505328994
0.009168825172631151
0.009606425791426898
0.010043055630975795
0.010481352295288422
0.010924318141162839
0.011375324602593669
0.011838124944119892
0.012316849295665552
0.012815984187200435
0.013340339579348761
0.013895005079089176
0.01448528991856962
0.015116564078923136
0.01579282393342002
0.016496943354636796
0.016904076818049053
0.0005848761541942852
0.0006545933484034712
0.000792188545577802
0.0009561598085300674
0.001144696732829352
0.0013585005808872481
0.0015980830592697308
0.0018635462360668913
0.0021545539889236778
0.0024703330391777317
0.002809693475514456
0.003171069037857154
0.0035525769464950915
0.003952093242644419
0.004367329587141461
0.004795857493130529
0.005234994992764035
0.005680981422940517
0.006129148081753083
0.0065756744846877935
0.0070185980730737875
0.00745956592042603
0.007900791285754497
0.008341907692050619
0.008781779658219064
0.009218401085099494
0.00965172082635142
0.010083132201966284
0.010514942777350631
0.01095007417109933
0.011391954017899712
0.011844466578208493
0.012311922339776175
0.012799028320854467
0.013310853307652245
0.013852784902727375
0.014430470600092275
0.015049659928249835
0.01571478366503129
0.016409400892592796
0.01681191073060774
0.0005641647974839406
0.0006338133676920645
0.0007719303545703239
0.0009374657210751439
0.0011286137123593437
0.0013460318886618708
0.0015901713668293573
0.0018610610572159117
0.0021582802466733188
0.0024809589432076545
0.0028277954187739536
0.0031970897747405484
0.003586790310675934
0.003994544069177463
0.004417731018877062
0.004853451581287636
0.005298391754575519
0.005748845744292735
0.0062010568557260325
0.006651864104714543
0.007099646191449082
0.00754408048415665
0.00798543951270744
0.008423806598060756
0.008858500930259434
0.009289027166227516
0.009715431771341482
0.010138817003789989
0.010561226199570305
0.010985467287349837
0.011414980838616012
0.011853761073046754
0.012306303359135962
0.012777562898808199
0.013272915245218526
0.013798112729904576
0.014359227243440732
0.014962496833903056
0.015612930119292882
0.016294968042109118
0.016691296172731726
0.0005386204873457726
0.0006082060772025943
0.000747002845244578
0.0009144953826939398
0.0011088776280947835
0.001330749773607921
0.0015804858745769657
0.001858022094771306
0.0021628290157630794
0.002493909387041154
0.002849810673876777
0.003228650811036769
0.003628153748810764
0.0040456875745382
0.004478295494737813
0.004922709308424838
0.005375395972562657
0.005832692891687521
0.006291100601562243
0.006747712617260362
0.007200475760027649
0.007648233604044341
0.008090408307205733
0.00852660862632897
0.00895655598666429
0.009380149895440873
0.009797834860420943
0.010210782613942716
0.01062099367249334
0.011031251349624217
0.011445044338557562
0.011866496172842172
0.012300309777824906
0.0127517222139001
0.013226463821082574
0.013730716091290271
0.014271058315273293
0.01485432140054576
0.015486215389898252
0.01615226412986192
0.016540682116650513
0.0005082072673766066
0.0005777383957328837
0.0007173808305712306
0.0008872349759385522
0.0010854866957221427
0.001312664587017164
0.0015690504673512395
0.0018544709812334645
0.0021682681527049876
0.0025092930592333384
0.0028759126619595176
0.003266029155875834
0.003677110378638608
0.00410622891813194
0.004550108684138916
0.0050051899594649035
0.005467732007691638
0.005933981813447623
0.006400410818335646
0.006863958564094753
0.007322216597232573
0.007773454274397766
0.008216521838304824
0.008650719854183418
0.00907571807457149
0.009491621355127587
0.009899080777257962
0.010299434664266098
0.010694777426388887
0.011087974251281761
0.011482630160360807
0.011883044911085399
0.012294168423187486
0.012721561010334873
0.013171357185695044
0.013650229268216268
0.014165341339829262
0.014724212408171265
0.015333374293183408
0.01597966122267089
0.01635823075373512
0.0004729737653344819
0.0005424527311185001
0.0006831000134801779
0.0008557173812386415
0.0010584727155949687
0.0012918089492390313
0.0015559032681341611
0.0018504608737133633
0.0021746818500252268
0.002527249041436068
0.0029063284548303176
0.0033095833650597555
0.003734203409934884
0.004176950057481776
0.004634222253395434
0.005102148979748926
0.005576718415881447
0.006053946779353952
0.006530072983119727
0.00700174829404431
0.007466174387511817
0.007921167978406857
0.008365155449957208
0.008797136407568221
0.009216668287171052
0.009623886888183913
0.01001956980058351
0.010405201951881361
0.010783026841587601
0.01115606400489826
0.01152810049195474
0.011903666124198716
0.012288003926727258
0.012687041638309707
0.013107365670301267
0.01355619542921815
0.014041349124971625
0.01457112143596762
0.015152983696468166
0.015775320844023416
0.016141856522175358
0.00043309795035506343
0.0005025065385598491
0.0006442861244997017
0.0008200404430878382
0.0010279080671082128
0.0012682334220212544
0.0015410811560483354
0.0018460299816584914
0.0021821328719752644
0.0025478963944239813
0.0029412727744972714
0.003359668115165041
0.003799970529348625
0.004258601901879385
0.0047315970583944236
0.00521471398691834
0.005703576076239114
0.006193841111995181
0.0066813826276402345
0.007162460409520789
0.00763385759337324
0.008092969746319616
0.008537849224561397
0.008967222318651845
0.009380499657596736
0.00977779687171152
0.010159964821053104
0.010528623717438903
0.010886188173186647
0.01123587803950416
0.011581714234179264
0.011928505365414687
0.012281831021195885
0.01264802663719494
0.013034171575443653
0.013448079008907314
0.013898279248869829
0.0143939188398798
0.01494351744173507
0.015537260813500639
0.015889298348318457
0.00038893835962635503
0.0004582164650552006
0.0006011860753711038
0.0007803841141233784
0.0009939084911847556
0.0012419949795015276
0.0015245944850282066
0.0018411634703846443
0.0021906128363172227
0.0025712741981060903
0.0029808797738814737
0.0034165618220720444
0.0038748776275231676
0.00435186503499846
0.0048431318734316435
0.005343979997036886
0.005849560574361537
0.006355051784000375
0.006855844390596817
0.007347717482832939
0.007826987754310942
0.008290622422181735
0.008736314986994603
0.009162531205395478
0.009568536748894125
0.009954415675240786
0.01032108525856697
0.010670306601982243
0.011004689844278775
0.011327692331154713
0.011643611398046962
0.011957575122205482
0.012275535320720997
0.01260426599227065
0.012951368437786322
0.013325281547204184
0.013735288923218856
0.014191447682271876
0.014703419117028929
0.015263444170294963
0.015598217135718614
0.00034109030022284816
0.0004101057869979128
0.0005541993124084195
0.000737024673097056
0.0009566298515910861
0.001213136672003954
0.0015063907429144101
0.0018357430439929789
0.0021999805246676447
0.002597272408760677
0.003025131696114483
0.0034804006999831754
0.003959269048975067
0.004457330492534278
0.0049696815984338625
0.005491061205369642
0.0060160244305261495
0.006539139905795968
0.007055194848966361
0.00755939098550026
0.008047516164049072
0.008516081469072255
0.008962420263426779
0.009384751921655977
0.009782216706320606
0.010154889694848554
0.010503780427683934
0.010830823288610555
0.011138862461378247
0.011431634837366438
0.011713754627366936
0.011990703863197722
0.012268832440838236
0.012555370346322195
0.012858452645749903
0.01318715527345844
0.013551533074740555
0.013962587746992362
0.014431192070402
0.014951893752924713
0.015266323142376305
0.0002904436093904278
0.0003589519626580313
0.0005039064968249561
0.0006903434050376863
0.0009162566131424605
0.0011816564870073636
0.0014863054288935169
0.0018294826419788654
0.002209886521253812
0.002625551041967688
0.003073779744619569
0.0035511098725288194
0.004053318252397494
0.004575477192550012
0.0051120638255537365
0.005657120352717467
0.006204456416379293
0.006747879216363414
0.007281433157164044
0.007799629838231928
0.008297651182859512
0.008771513435008142
0.009218185903089288
0.009635664697766895
0.010023006555390417
0.010380330854954213
0.010708799122327993
0.011010581001494562
0.011288815185992717
0.011547572634798305
0.011791828773071514
0.012027450159227425
0.012261199962306337
0.01250076473525744
0.012754802755579615
0.013033011333310415
0.013346204079390925
0.01370632863780841
0.014125506951751762
0.014600832955325816
0.01489153445298544
0.00023823631689422133
0.00030582895958341193
0.00045109119692553885
0.0006408264340695884
0.0008729796179032047
0.0011474637872746116
0.0014639988881313933
0.0018218488760136603
0.002219682288976532
0.002655444823560314
0.003126252865904334
0.0036283256462599067
0.004156972234353637
0.00470664458892684
0.005271061043398396
0.005843396426877408
0.006416526785220088
0.006983309643576422
0.007536876325123857
0.008070911784497991
0.008579900178598408
0.009059320050357053
0.009505780571984597
0.009917098000519315
0.010292318206987222
0.010631695809833952
0.010936643060274084
0.011209662258847668
0.011454274753266078
0.011674958080292223
0.01187710067103193
0.01206698163054038
0.012251780617372844
0.012439620732495216
0.012639644683059606
0.012862121266048878
0.013118571809273635
0.013421850680008578
0.013785325293628962
0.014208852083439028
0.014472167005204114
0.00018609421033857488
0.00025213595830028083
0.00039674846157571384
0.000589051928423388
0.0008269617082350533
0.0011103233278602573
0.0014388797004999333
0.0018119666334384477
0.0022283134473815454
0.002685852356891344
0.0031815529606338136
0.003711307663309649
0.004269890588143059
0.004851005678877849
0.005447430117058362
0.006051247878997515
0.006654156803429758
0.0072478228109037575
0.007824248897439894
0.008376125426556927
0.008897132069848086
0.009382169799793857
0.009827511757748405
0.010230872609020619
0.010591405283833908
0.010909640800222808
0.011187390332747214
0.011427629707946599
0.011634384839452668
0.011812634107155594
0.011968240001203017
0.012107919166173759
0.012239256518432376
0.012370766601248034
0.0125120027913154
0.01267371198495881
0.012868024601972044
0.013108612243720667
0.0134100368916418
0.013775097740800487
0.01400715344310114
0.00013604180378892392
0.0001996001613671666
0.00034207247257818786
0.0005356621557480023
0.0007782925387036376
0.0010697907583692003
0.001410018981717075
0.001798513368994807
0.0022342000738601697
0.002715112043827774
0.0032381386403425557
0.003798843904301517
0.00439138444597172
0.005008549529313318
0.005641932726555666
0.0062822286746023115
0.0069196313909206525
0.007544296577202667
0.008146821301763984
0.008718693084091565
0.009252666645533343
0.009743038901511568
0.010185808605003548
0.010578722817542997
0.010921225843674656
0.011214335176597041
0.011460473312082995
0.011663284179265581
0.011827459732314435
0.011958597324243286
0.012063102841336123
0.012148149428019535
0.012221697339094064
0.012292577340612842
0.01237063821804168
0.012466958067784136
0.012594113400133332
0.012766447090287202
0.012999606210583152
0.013299478947429288
0.013496288357541552
9.046222222534841e-05
0.00015023682708906387
0.0002884160267100506
0.0004813205280787717
0.0007269412412300876
0.0010251497603242237
0.0013760634209315753
0.0017796100414885665
0.0022351121378959846
0.002740872389098214
0.003293804574183322
0.003889155895860332
0.004520364543044587
0.005179085933383994
0.0058554037181278
0.006538217979255125
0.0072157775066852186
0.00787630062298054
0.008508615290956988
0.009102747386436417
0.009650396658884083
0.010145260153957331
0.010583187901560397
0.01096217989975021
0.011282252590873267
0.011545214532607179
0.011754394746071315
0.011914364639097447
0.01203068731410397
0.012109719609827794
0.012158483121152171
0.012184613281251219
0.012196389813159637
0.012202848569327716
0.012213973585451583
0.012240968875575964
0.012296614190737862
0.012395670874324614
0.012554737406612322
0.012782877626381995
0.012940469104477808
5.1986404700793026e-05
0.00010624698032232619
0.00023721244906476104
0.0004266741699931911
0.0006727262504507097
0.000975357048975838
0.0013351583054990043
0.001752724952756161
0.0022280574371909313
0.0027599726327597503
0.003345570000085006
0.003979816244407948
0.004655311303375876
0.005362288601232404
0.006088878730899616
0.006821629825682347
0.00754623765947478
0.008248401600394483
0.008914699977839117
0.009533376333924577
0.01009494657432059
0.010592572324991266
0.011022186430559584
0.0113823947503099
0.011674205377196604
0.011900650200130721
0.012066364283030838
0.012177180133710906
0.012239780083844982
0.012261435175275654
0.012249845647623646
0.01221308800543039
0.012159667041407567
0.012098667973364546
0.01204000312880591
0.011994750277770576
0.011975580963797463
0.011997291259857672
0.012077023820972784
0.012227369882791802
0.012342005391651258
2.616777100393711e-05
6.983464461537007e-05
0.0001899287506036178
0.00037235056611122276
0.0006152698547257536
0.0009189979490979764
0.0012849079529886674
0.001714625944988198
0.0022092173487224167
0.002768363546931085
0.00338959987697502
0.004067697315512809
0.0047942848025300045
0.005557797855483076
0.006343808638055833
0.007135737125388794
0.007915876657265716
0.008666604054437522
0.009371605967453773
0.010016949824170486
0.010591863520457762
0.011089149099538754
0.011505226195403517
0.011839859935716148
0.012095666607599306
0.012277502395787857
0.012391833546036644
0.012446164892550475
0.012448578406061953
0.012407409022746186
0.012331066036254713
0.012227995696076556
0.012106774548213775
0.011976320942586284
0.011846214432305597
0.011727114216874928
0.011631275114720748
0.01157311242499496
0.011569690356545701
0.011636342935274255
0.011704462678973397
1.011767361597683e-05
4.30921792185547e-05
0.00014799546582445114
0.00031882891401432533
0.0005540203354858417
0.0008544456371188978
0.0012226067902171812
0.0016616377462901684
0.0021741972342200168
0.0027613390421423988
0.0034214263904648007
0.0041492113805823095
0.004935224002797645
0.0057656172157196746
0.006622572422755053
0.007485286262252067
0.008331443948777979
0.00913897472352531
0.009887811953686884
0.010561379632313858
0.011147592989982089
0.011639276746674539
0.01203402425794237
0.01233361690151472
0.012543170120961978
0.012670178472654333
0.012723601633365148
0.01271309081725793
0.012648408631977203
0.012539059089874603
0.012394118754969085
0.012222247356027982
0.012031852375255945
0.01183138563781459
0.011629756601226051
0.011436855547607691
0.011264179533824394
0.011125574637490894
0.011037616818586617
0.011017856595581589
0.011035971474385687
0.0005032952437698328
0.0007991308655691423
0.001617017519700544
0.0034711366939957195
0.004255516145643548
0.006015576376628003
0.006952063765570339
0.008808920223179294
0.009673889834932769
0.011157937258223161
0.011745194212475576
0.012218850095087353
0.01257881969071225
0.012830034944484965
0.01298109177993964
0.013042865005053535
0.011928812494961404
0.011664056938555366
0.010682524478362456
0.010516944675611248
0.010387191678610743
3.535139692099262e-06
2.928336686157694e-05
0.00011877817963350107
0.0002770799240503967
0.001168665544018828
0.0021489111620725215
0.002767153821772447
0.005109300078625666
0.007892528633391797
0.010463249353625166
0.013027280133104212
0.012946351104693136
0.01281152362310957
0.012633313381684374
0.012421201294993526
0.012183737770687611
0.011397361673730342
0.011137505664810771
0.010894912870885398
0.010416849730727712
6.380961565328408e-06
2.3653558822810524e-05
9.785489741831397e-05
0.0002427128889499607
0.0004571165392686007
0.0007433075043033505
0.0011064330148333368
0.0015531283890357838
0.0020898402395983866
0.002721046480826003
0.0034474321293244355
0.00426421810296969
0.005159924270937405
0.006115893310312664
0.0071068463123532925
0.008102567461751175
0.009070552109173815
0.009979180985419115
0.010800816611302824
0.011514231447131495
0.012105972322086126
0.012570553834710476
0.012909645683982942
0.013130588733934327
0.013244621668593432
0.013265146705381961
0.013206259374491111
0.013081654577487261
0.012903930290998816
0.012684251151057362
0.012432306168477085
0.01215649136699018
0.011864258463027659
0.011562588977062823
0.011258573706358356
0.010960094378920872
0.010676628975624075
0.010420178604158307
0.010206386271469367
0.010054551036899916
0.009995257270944233
1.353174670422693e-05
2.2180168501806378e-05
8.234409651929564e-05
0.00021449312372267556
0.00041759814008973526
0.000694387866898804
0.001051196485527101
0.00149629741025299
0.0020380250539525566
0.0026827088376861308
0.003432497713199283
0.004283282452045825
0.005223071724230762
0.006231258340489308
0.00727916704079498
0.008332059138068431
0.009352410045391384
0.0103038883925812
0.011155219259782755
0.011883134117365711
0.012473894400824059
0.01292329040292107
0.013235389135156221
0.013420515458044582
0.013492980066317845
0.013468965633562265
0.013364824446020605
0.013195887803660438
0.012975774644434512
0.012716122636109717
0.012426642280963487
0.012115400398012448
0.011789260230724482
0.011454431498052517
0.011117108475326284
0.010784200253968708
0.010464152462588458
0.010167962154273708
0.009909969960433
0.009711957242308817