# vtk DataFile Version 2.0
time_10.vtk
ASCII
DATASET UNSTRUCTURED_GRID
POINTS   4141  float 
2.734859476839867e-05         -1.7280505898043836e-17       0.0                           
0.25000000000000056           2.5869496095034172e-05        0.0                           
0.5000250474737935            -4.574887943956705e-16        0.0                           
0.75                          2.3211860495884093e-05        0.0                           
1.00002218942136              6.097939336868445e-17         0.0                           
1.25                          1.9918486544356936e-05        0.0                           
1.500018665570658             5.92997451396654e-16          0.0                           
1.75                          1.591970742362226e-05         0.0                           
2.0000144270524314            8.381068015167178e-18         0.0                           
2.25                          1.1208712205214485e-05        0.0                           
2.5000094878436694            9.902332246912069e-17         0.0                           
2.75                          5.841385384584441e-06         0.0                           
3.000003928095715             1.935546061141395e-16         0.0                           
3.25                          1.160841340307751e-17         0.0                           
3.499997798429197             5.1941662758242186e-17        0.0                           
3.75                          -6.647733265558835e-06        0.0                           
3.999991081896258             -8.143620486480166e-16        0.0                           
4.25                          -1.3560638175420163e-05       0.0                           
4.499984070301532             1.9987600895533271e-16        0.0                           
4.75                          -2.075573896667023e-05        0.0                           
4.999976789113358             -1.122461206249207e-16        0.0                           
5.250000000000001             -2.820531678432809e-05        0.0                           
5.499969253423861             1.7453647190238495e-17        0.0                           
5.75                          -3.592751488905372e-05        0.0                           
5.999961426504549             8.361743075371561e-17         0.0                           
6.25                          -4.3997411534566704e-05       0.0                           
6.499953214392933             3.8677072645158595e-16        0.0                           
6.75                          2.727310123216048e-05         0.0                           
7.000026560125227             2.061794047805849e-06         0.0                           
7.250002202109956             2.4974713402292758e-05        0.0                           
7.500024091008179             2.508607097854423e-06         0.0                           
7.7500026730571               2.211772286678231e-05         0.0                           
8.000021020641201             3.019275938782759e-06         0.0                           
8.25000319883142              1.8592538304312347e-05        0.0                           
8.50001725865596              3.565156399155705e-06         0.0                           
8.750003749687481             1.4349964779631964e-05        0.0                           
9.000012776923226             4.116181505359827e-06         0.0                           
9.250004296187775             9.403166487186182e-06         0.0                           
9.500007608272835             4.645256043304496e-06         0.0                           
9.750004812618814             3.819996131533285e-06         0.0                           
10.000001829315421            5.129340756193753e-06         0.0                           
5.304300954925146e-06         0.29999765072937845           0.0                           
0.24999547099355432           0.300005613483374             0.0                           
0.5000057494133066            0.29999097452481865           0.0                           
0.7499886697625923            0.3000060108493831            0.0                           
1.0000061368775486            0.2999839611555172            0.0                           
1.2499815613523326            0.300006382194642             0.0                           
1.5000065030110064            0.29997667715359905           0.0                           
1.7499741935469504            0.30000674552519113           0.0                           
2.0000068692489466            0.29996914022655324           0.0                           
2.2499665671217617            0.3000071269555397            0.0                           
2.5000072630918186            0.2999613140518753            0.0                           
2.74995862635471              0.3000075551279919            0.0                           
3.0000077129409504            0.29995310437911066           0.0                           
3.249950258683979             0.3000080562528223            0.0                           
3.500003856068331             0.3000263366219643            0.0                           
3.750025575256156             0.300004399060399             0.0                           
4.000004698102364             0.30002387443725004           0.0                           
4.250022924580789             0.3000053431695131            0.0                           
4.500005685240542             0.3000208050653643            0.0                           
4.750019629309944             0.3000063975280755            0.0                           
5.000006763179911             0.30001703653465744           0.0                           
5.25001561819539              0.3000075021642032            0.0                           
5.500007871161442             0.3000125399978083            0.0                           
5.750010883154669             0.3000085982435036            0.0                           
6.000008952868878             0.3000073455129366            0.0                           
6.250005470036031             0.30000963772667866           0.0                           
6.500009967243872             0.3000015151841993            0.0                           
6.749999447020611             0.30001061496168024           0.0                           
7.000010925912398             0.29999514867178007           0.0                           
7.249992924368561             0.3000114980246803            0.0                           
7.5000117653782485            0.2999883492903557            0.0                           
7.749986007668316             0.3000122766820552            0.0                           
8.0000125235562               0.2999812310941709            0.0                           
8.249978799883563             0.3000130076503236            0.0                           
8.500013248496167             0.29997385592480275           0.0                           
8.749971342794357             0.3000137378083561            0.0                           
9.00001399053797              0.2999662277326017            0.0                           
9.249963620938479             0.30001452301788206           0.0                           
9.500014807042753             0.29995829109205707           0.0                           
9.749955558834147             0.300015420658084             0.0                           
10.000015753779243            0.2999499319691105            0.0                           
2.6668414835557967e-05        0.600005769090309             0.0                           
0.2500061626881856            0.6000252071337516            0.0                           
0.5000243922162835            0.6000070357494683            0.0                           
0.7500075106253425            0.6000225653215638            0.0                           
1.0000215439760733            0.6000085226876454            0.0                           
1.2500090533590378            0.6000192678685478            0.0                           
1.5000180085021875            0.6000101467956747            0.0                           
1.7500107026368164            0.6000152417730482            0.0                           
2.0000137346200684            0.6000118159177117            0.0                           
2.250012367217086             0.6000104785447742            0.0                           
2.5000087336968346            0.6000134458435243            0.0                           
2.750013969069719             0.6000050234020977            0.0                           
3.000003063925111             0.6000149786048483            0.0                           
3.2500154650718307            0.5999989589112398            0.0                           
3.4999968239449304            0.6000163952998971            0.0                           
3.750016833420475             0.5999924071132867            0.0                           
3.9999901323706144            0.6000176557322563            0.0                           
4.2500180449412195            0.5999854705340627            0.0                           
4.499983090601526             0.6000187924373719            0.0                           
4.75001915571948              0.5999782451482166            0.0                           
4.9999757824213775            0.6000198750311322            0.0                           
5.250020237066539             0.5999707783814822            0.0                           
5.499968235332344             0.6000209819062822            0.0                           
5.750021371325643             0.5999630569427662            0.0                           
5.999960415159712             0.6000222005947681            0.0                           
6.250022646724321             0.599955004677762             0.0                           
[...]
POINT_DATA  4141
SCALARS Con float 1
LOOKUP_TABLE default
0.00011946653875974336
0.0001282722991923087
0.00014570106663256145
0.00016604377081891683
0.00018899754740213715
0.0002146225597140449
0.00024296424520509817
0.00027402297836938113
0.00030774951017749336
0.00034404407221937935
0.0003827575122962301
0.00042369424850631705
0.0004666167423954614
0.0005112509558956292
0.0005572919167026798
0.0006044078214331051
0.0006522420137184299
0.0007004100823732567
0.0007485921456522996
0.0007972277946569499
0.0008517152779986084
0.0009063268693081089
0.0009554733881101062
0.001002205470147149
0.0010488966105085698
0.001095407451904664
0.0011418044358075172
0.0011882125489031702
0.0012348432034672708
0.0012819784544726442
0.0013299626932799398
0.0013791954833652404
0.001430125488333609
0.001483244861529645
0.0015390837113192855
0.001598204321172602
0.0016611941763080829
0.0017286476297884478
0.0018010018938090717
0.0018763080134883848
0.0019196714169210677
0.00012128164403811537
0.0001302918563972841
0.00014807231100601344
0.0001687937488520343
0.0001921540999805688
0.00021820630381910473
0.0002469885832208312
0.0002784936845623097
0.00031266468200941806
0.00034939441374351096
0.0003885270301175714
0.0004298614939563308
0.000473156897128115
0.0005181394511662205
0.0005645111839186698
0.0006119616775540202
0.0006601862264629119
0.0007089443484294963
0.0007581559138899437
0.0008090314262475842
0.000860462248447675
0.0009110221482763703
0.000960105481139208
0.0010083550563462166
0.0010555852846330363
0.0011023425036707534
0.0011488251311149724
0.0011952526422900531
0.0012418810644039128
0.0012890196533398833
0.0013370312129346274
0.0013863294672575893
0.0014373749772948956
0.0014906704626888663
0.0015467557392187263
0.0016062021501356905
0.0016696056206224764
0.001737568510904451
0.0018105329365906157
0.0018865821415160894
0.0019304241885701669
0.000120257152235707
0.000129263880143123
0.0001470825288093133
0.00016789440820310595
0.00019139044187657485
0.00021762089114902596
0.0002466202834444683
0.0002783773806007558
0.0003128311795471681
0.0003498706768253501
0.0003893369063612486
0.00043102726271011853
0.0004747022948387386
0.0005200954497241918
0.000566927149718549
0.0006149261011708005
0.0006638688121443759
0.0007136254302031258
0.0007643675724510228
0.000814757593635526
0.0008629494452598804
0.0009110233106849418
0.0009605286467229723
0.0010093512261802426
0.0010572077644011
0.0011042459823232234
0.0011507781051971102
0.0011970845486268175
0.0012434673601083026
0.0012902645807971339
0.0013378587912185505
0.0013866787560292177
0.0014371980136727645
0.001489931792757221
0.0015454329227331436
0.0016042869353130194
0.0016671055791607375
0.001734508816827133
0.0018069604935255922
0.0018825532102915558
0.0019261479568882351
0.00011848193215161405
0.00012750265778146971
0.00014539304132674827
0.00016635482686212
0.00019007675932046728
0.00021660362924218098
0.0002459637522039632
0.00027813899693541897
0.00031306112133395287
0.0003506118717885227
0.0003906254468013653
0.00043289338894580113
0.0004771721071949699
0.000523193349338736
0.0005706778595002149
0.0006193523424961365
0.0006689594059116188
0.0007192580741360171
0.0007696459812599588
0.0008193562210792279
0.0008683189734400904
0.0009167850654136409
0.0009651111831522239
0.0010134244941098624
0.00106109884190288
0.0011080219457179762
0.001154328852276727
0.0012002715112674628
0.0012461539301560755
0.0012923274842445342
0.0013391902881141914
0.0013871872576648795
0.0014368087691806546
0.0014885881666450705
0.001543098333408433
0.0016009473783516988
0.0016627726727239083
0.001729223399673882
0.0018007962168097177
0.00187563748666819
0.0019188660550072967
0.00011597221450764128
0.00012501348752051418
0.00014300972282457075
0.0001641872630616822
0.00018823086481617023
0.00021517778424923824
0.0002450472735787869
0.00027781110809284526
0.0003133901694993963
0.00035165475473449985
0.00039242716962728616
0.00043548659674839545
0.0004805761725051799
0.000527411871859111
0.0005756919916861258
0.0006251026527281382
0.000675312956468517
0.0007259084319393241
0.0007764182927860562
0.0008264495748428323
0.0008757807058140098
0.0009244968477810968
0.0009727418870774011
0.0010204713652777527
0.0010676052047174495
0.0011140184718147362
0.0011597667590931126
0.0012050392821403501
0.0012501173652506913
0.0012953493507541808
0.0013411412746223079
0.0013879520801581696
0.0014362904361464536
0.001486711691388553
0.0015398145713004805
0.0015962372483648202
0.0016566518783608728
0.0017217476894214258
0.0017920687244281693
0.0018658356695681623
0.0019085350701704047
0.00011270562191859773
0.00012177749333606844
0.000139917527228948
0.0001613808414375
0.00018584638144455813
0.00021334125666222717
0.00024387270809800318
0.00027739905154953147
0.0003138264363899259
0.000353009180949658
0.0003947522181437889
0.0004388155274238493
0.0004849202590248154
0.0005327557910809517
0.0005819859541386597
0.0006322519380320761
0.0006831649623792818
0.0007343134014959102
0.000785291982595958
0.0008357597279877113
0.0008855171585856597
0.0009344890020513482
0.0009826668970102244
0.0010300467567177242
0.0010765853061662858
0.0011222793872448257
0.0011671927952154367
0.0012114954535270641
0.0012554517399494059
0.0012994053744520887
0.0013437679264684701
0.0013890117539905283
0.0014356652230487579
0.0014843090009865442
0.0015355726908763418
0.0015901312585460325
0.0016487001389776045
0.0017120191433123795
0.0017806927827300862
0.0018530385931835982
0.001895034740991503
0.0001086596254110304
0.00011777420017368164
0.00013610058218319965
0.00015792475798401292
0.00018291767729580134
0.00021109356795553653
0.00024244464297379552
0.00027691242321527037
0.0003143845482752537
0.0003546949837350901
0.0003976261692171479
0.00044291295372729566
0.0004902480261004472
0.00053928819522321
0.0005896606306219348
0.000640967991255488
0.0006927965585715395
0.0007447308839346166
0.0007963816161837137
0.0008474233416687294
0.0008976189891122206
0.0009468247907599658
0.0009949651006545184
0.0010420010133292991
0.0010879255140781414
0.00113276965410772
0.0011766320911918869
0.0012196919209748133
0.0012622148664451925
0.0013045478494796117
0.0013471116438474333
0.0013903944434533254
0.0014349469793967062
0.0014813787715044961
0.0015303550301067523
0.0015825936533399325
0.0016388611724317168
0.0016999577874671403
0.0017665611078738544
0.0018371087771890551
0.0018782095355072913
0.00010381428646679745
0.00011298576920745891
0.00013154540153461738
0.00015381056124426246
0.0001794415902181775
0.00020843698145930114
0.00024077099320581183
0.00027636524435336793
0.00031508542663929117
0.0003567412509026333
0.00040108822823170146
0.0004478312445876476
0.0004966297874097103
0.0005471045750816319
0.0005988453370609894
0.000651420463061147
0.0007043896975317895
0.0007573221549905464
0.0008098194336904422
0.0008615390898120897
0.0009122124066414994
0.000961648384730426
0.0010097266066311813
0.0010563868682140938
0.0011016227162380344
0.0011454868231430652
0.0011880993557502417
0.001229657984419258
0.001270441550587764
0.0013108094828402407
0.0013511979400674529
0.0013921153683575565
0.001434138605267463
0.0014779098560841223
0.0015241343948262955
0.0015735785683044612
0.001627066980074714
0.001685469139626344
0.001749547711264379
0.0018178847149562833
0.0018578766871800525
9.815724296639886e-05
0.00010740125109112638
0.0001262443356214193
0.00014903464039703855
0.00017541890445600932
0.00020537701216201987
0.00023886258414687028
0.00027577465741260374
0.0003159540836350813
0.0003591830173334605
0.00040518625455900607
0.0004536345352555895
0.0005041499115521471
0.0005563132084138929
0.0006096737336837786
0.0006637615288472418
0.0007181027068702292
0.0007722378447161438
0.0008257421647801583
0.0008782447138529529
0.0009294425394576944
0.000979107778066231
0.0010270879843042602
0.0010733031189682335
0.00111774379524771
0.0011604721062314716
0.001201625565434523
0.0012414207364181836
0.0012801554865302875
0.0013182085685542984
0.001356037516499977
0.0013941758320549268
0.0014332304522019189
0.0014738799545797683
0.0015168735703098935
0.0015630307010341018
0.0016132398730065046
0.0016684476300039542
0.0017295126784360613
0.001795186396444047
0.0018338315905592356
9.168961773623721e-05
0.00010102186303662637
0.00012019957459244355
0.00014360087812054348
0.00017085562920140596
0.00020192234533301514
0.00023673177436312398
0.0002751583499952167
0.000317015909768823
0.000362056415983619
0.00040997064022546103
0.0004603911361241892
0.0005128978153996354
0.0005670263394910646
0.0006222794495706808
0.0006781412586750754
0.0007340942769175061
0.0007896384386119068
0.0008443106487207362
0.0008977026854720298
0.0009494753312679428
0.0009993673801499314
0.0010471997873576506
0.0010928766029025655
0.0011363846394210197
0.0011777935000134745
0.0012172560690404492
0.0012550090752842214
0.00129137293348056
0.0013267506532198131
0.0013616260474520474
0.0013965619168580037
0.0014321987724705996
0.0014692545240434277
0.0015085252145850413
0.001550886568107089
0.0015972953238225873
0.0016487811322065445
0.0017063082297954332
0.0017688227000249505
0.0018058559164311398
8.443312065604494e-05
9.386717969006104e-05
0.00011342766801843909
0.00013752336979012928
0.0001657638899850333
0.00019808395259375281
0.0002343899404151198
0.0002745306058645214
0.00031829154625690934
0.00036539264556483914
0.00041548770081452607
0.0004681668188118695
0.0005229620923815942
0.000579356869816721
0.0006367986643676508
0.0006947154362980634
0.0007525345721127695
0.000809703427357629
0.0008657098328602446
0.000920100763902459
0.0009724975210714802
0.0010226064712824383
0.0010702253290004072
0.0011152457805847467
0.0011576537104806075
0.0011975280981217063
0.0012350393516915373
0.0012704472321922692
0.0013040985968058186
0.0013364250241651892
0.0013679407249567851
0.0013992411820171408
0.0014310029706734674
0.001463985049241509
0.0014990315716619693
0.001537075996470757
0.0015791454602889037
0.001626356545922029
0.0016797863891242497
0.0017386009712747762
0.0017737281604593169
7.643830251950116e-05
8.598222551479998e-05
0.00010596442003527543
0.000130828993144851
0.00016016217227776875
0.00019387313004849729
0.00023184353311582855
0.00027389672991205943
0.00031979013175702345
0.0003692105858726786
0.0004217723104452018
0.00047701827610933554
0.0005344257744834956
0.0005934165900968714
0.0006533717283453317
0.0007136501821677291
0.0007736106857952248
0.0008326349589030437
0.0008901506212160854
0.0009456519484296085
0.0009987168885285324
0.0010490194099045998
0.0010963369557818214
0.0011405535376561792
0.0011816593943042466
0.0012197483057189353
0.001255013555326252
0.0012877432977821662
0.0013183160037641714
0.0013471965041772368
0.0013749331715813282
0.0014021567248218042
0.0014295810353101698
0.00145800615802695
0.0014883235990743452
0.0015215235374609944
0.0015587029797525236
0.0016010663712066402
0.001649808268074782
0.0017043388742846001
0.0017372368731509338
6.779381647761026e-05
7.744523047986001e-05
9.786989224869615e-05
0.000123559508721901
0.0001540745683851817
0.00018929806937845805
0.0002290883224093887
0.0002732454666062559
0.0003215005388235398
0.00037350763768996314
0.0004288392257209854
0.0004869858524963425
0.0005473613572984747
0.0006093140890584294
0.000672144037520893
0.0007351250525986278
0.0007975306761449499
0.0008586616038995917
0.0009178725331853882
0.0009745962324723674
0.0010283630502529242
0.0010788148075988188
0.0011257127272638488
0.0011689399018755947
0.0012084992445994232
0.001244508241176563
0.001277191846635698
0.0013068747243030938
0.0013339739915401258
0.0013589932631247743
0.0013825188096741022
0.001405218328084227
0.0014278427381710834
0.0014512311792908709
0.0014763191611580667
0.0015041495464905412
0.0015358853332330656
0.0015728161560505849
0.0016162548950168398
0.0016658785496330526
0.0016961966067094289
5.8636178104787536e-05
6.837559045868005e-05
8.923302429861823e-05
0.0001157727309115556
0.00014752857944032617
0.0001843585640767253
0.00022610142619843606
0.00027253897412967315
0.0003233801309092096
0.0003782482742582644
0.0004366725447623612
0.0004980849961762366
0.0005618251121505014
0.0006271524173928285
0.0006932669781125656
0.0007593366072695895
0.0008245286765338262
0.000888043820009653
0.0009491485718130607
0.0010072041176446991
0.0010616889995560114
0.0011122144238826929
0.001158531889226574
0.0012005337244830267
0.0012382478861922763
0.001271828717249669
0.0013015455512684143
0.0013277709046511912
0.0013509697543739529
0.0013716911523620884
0.0013905630388474574
0.0014082909190262307
0.0014256607547397675
0.001443546239041097
0.0014629203713426185
0.001484870994996994
0.0015106191554671606
0.0015415327500124842
0.0015790394910130843
0.0016231029819663255
0.0016504665895787497
4.9159115141529e-05
5.89411491280418e-05
8.0175156173989e-05
0.00010754218085143213
0.00014055108795270083
0.00017903853952087846
0.00022283083148528037
0.00027170003629109637
0.000325340683101249
0.0003833499607620946
0.0004452130230145007
0.000510296291303848
0.0005778508823165616
0.0006470271788388609
0.0007169002293821498
0.0007865042018700875
0.0008548729387012342
0.0009210827363714897
0.0009842932076993816
0.001043782459414803
0.0010989736968720937
0.0011494516674301792
0.0011949687759884784
0.001235441927364912
0.0012709420721658995
0.0013016790043238287
0.0013279839162865464
0.0013502921993933234
0.0013691283664580573
0.0013850946720710391
0.001398864400651066
0.0014111804869555468
0.0014228597591608096
0.0014348029116653845
0.0014480101243403243
0.0014636020264085572
0.0014828449856183407
0.001507173185460775
0.0015381209155727964
0.0015759542545687628
0.001599971729273152
3.962091576282089e-05
4.936340977104208e-05
7.085135567491408e-05
9.895470573269838e-05
0.00013316232698027373
0.00017329647921347294
0.0002191824748924259
0.00027059644502247016
0.00032723135876101876
0.00038866636772833955
0.0004543433151916859
0.000523554415687418
0.000595444069841844
0.0006690262755039703
0.0007432171461825224
0.0008168800356875626
0.0008888788570074146
0.0009581339831929749
0.0010236747691915907
0.0010846833507390204
0.0011405258806664752
0.001190769364885383
0.0012351843047771621
0.0012737350877830205
0.0013065613606784215
0.001333953978818984
0.0013563292716344399
0.0013742047243052269
0.0013881785371802173
0.001398914793785029
0.0014071352191321065
0.001413618037929858
0.0014192040543262255
0.0014248098693953241
0.0014314481454186982
0.001440254800152013
0.0014525225787028215
0.0014697346446147185
0.0014935178276932418
0.0015244530899872568
0.0015447257693952333
3.034697810248878e-05
3.9918431001036374e-05
6.144849878849752e-05
9.010569319378532e-05
0.0001253685343645826
0.0001670544472505566
0.0002150051020972131
0.0002690228160284733
0.00032881910800177945
0.0003939683397337134
0.00046387171051237016
0.000537736822594148
0.000614577055787681
0.0006932330028222096
0.000772415411505287
0.0008507659855185824
0.0009269294985806905
0.0009996287957482403
0.0010677337948514119
0.0011303168249369327
0.0011866890563057837
0.001236416068665204
0.0012793136817561537
0.0013154276816518653
0.0013450025984358045
0.0013684450175652564
0.0013862865151915932
0.0013991503525801754
0.0014077246918349942
0.0014127441833512108
0.0014149805859750533
0.001415242596644118
0.0014143845996084274
0.0014133239602269986
0.001413066550056542
0.0014147404565960264
0.0014196384103937166
0.0014292651945124878
0.0014453246065873483
0.0014687184457721286
0.001484853250890226
2.172566836424732e-05
3.0930954549634916e-05
5.217799500127903e-05
8.109444239519504e-05
0.00011715530690366244
0.00016018553750140883
0.00021007347051475335
0.00026668105422017463
0.0003297679522019125
0.00039892405487129874
0.00047351577136521013
0.0005526536768675409
0.0006351878966488513
0.0007197349794272088
0.0008047360094459935
0.0008885406165802805
0.0009695070422546178
0.0010461051961445603
0.0011170092052705852
0.0011811680253089978
0.0012378470969996442
0.0012866392713227215
0.0013274481481285378
0.0013604504956782626
0.001386046052378029
0.0014048029853583935
0.0014174059485845781
0.0014246117995939576
0.00142721601514784
0.0014260311565043012
0.0014218775026174505
0.0014155852468077457
0.0014080073319913057
0.0014000420443113044
0.0013926647003743202
0.0013869682402767856
0.0013842127573283716
0.0013858853505215507
0.0013937246069070808
0.0014089879154950385
0.00142061903253014
1.4183318349024601e-05
2.2756126661001125e-05
4.327410799137453e-05
7.202343232779303e-05
0.00010847562302908962
0.00015249893369516655
0.00020407252127045564
0.00026316318833542946
0.0003296208146599639
0.0004030814583317797
0.000482888359947808
0.0005680413157097545
0.0006571848600975348
0.0007486420392107898
0.0008404944137888131
0.000930700782295381
0.0010172393526516155
0.0010982526897956306
0.0011721742213266395
0.0012378189171516805
0.0012944287897558636
0.001341672608240036
0.0013796071167909126
0.0014086117224497827
0.0014293101808050446
0.0014424914323327121
0.0014490388139133128
0.0014498734071576205
0.0014459141256964326
0.0014380548237844888
0.0014271571977160715
0.0014140576414948297
0.0013995863378605505
0.0013845968440733462
0.001370005419222198
0.0013568393963686398
0.0013462949824805605
0.0013397994620332418
0.00133906487694291
0.0013456239050692387
0.0013524038698034993
8.214589439417995e-06
1.578680211333484e-05
3.4990161698520576e-05
6.297668776457029e-05
9.924338320024511e-05
0.00014374885090155497
0.00019661247066423361
0.0002579674761381949
0.00032781371154360083
0.00040588075213885034
0.0004915112768397873
0.0005835817039957215
0.0006804767438380429
0.0007801308288785409
0.00088013945207339
0.0009779303596085924
0.0010709702454410807
0.0011569735870891904
0.0012340787233750387
0.0013009645445804985
0.0013568952543435522
0.0014016964084191598
0.0014356775565274552
0.0014595231183848496
0.0014741730001649053
0.0014807106423771182
0.0014802698180566658
0.001473965769621282
0.0014628515621878282
0.0014478975485704103
0.0014299904771701416
0.001409948583081784
0.0013885495526885843
0.0013665692406753026
0.001344830057237094
0.0013242589493532005
0.0013059549770386544
0.0012912685695029328
0.0012818420146448522
0.0012794388491555182
0.0012810355715923833
9.170575652450414e-05
0.00013650159834708182
0.0002542548144384023
0.0005031692488812154
0.0006030934199631485
0.0008176132194155741
0.0009265902404815172
0.0011320731249403531
0.0012226728359014717
0.0013690346966489457
0.0014228213752928863
0.001463599300942148
0.0014920642740656198
0.0015093188112621392
0.001516702239222949
0.001515643189385913
0.0013744993721218671
0.001346194649238963
0.0012433036151421463
0.001225919829872714
0.001211835656218522
4.403317789606518e-06
1.1085626433122997e-05
2.8865458913176925e-05
5.5854058334827404e-05
0.00019056506969779082
0.00032777066552191575
0.0004109633640126857
0.0007087688435875326
0.0010324591156620861
0.0013021200827404895
0.0015075466721248426
0.0014937188170678528
0.001475326398882579
0.0014533852395759226
0.0014287709501952825
0.0014022460723912362
0.0013180283257463996
0.0012907964498802239
0.0012654736540737349
0.001215193963126626
2.717600317962998e-06
8.30775040313903e-06
2.4380984469927515e-05
4.99541851900473e-05
8.467986965993144e-05
0.00012874304790043864
0.0001826184363716049
0.0002468547551300677
0.00032184040125647336
0.00040757546326454015
0.0005034641531025269
0.0006081599193726809
0.000719499753502408
0.0008345601715622522
0.0009498482527239382
0.0010616102662218483
0.0011662070794451968
0.0012604831087574826
0.0013420555470565667
0.0014094731921153719
0.0014622311737705759
0.0015006624522127996
0.0015257494159612306
0.0015389040428718463
0.0015417576361831235
0.00153598648281198
0.0015231854387020968
0.0015047898237410167
0.0014820392302223372
0.0014559740890101802
0.0014274556874822148
0.001397202386585054
0.0013658366113691643
0.001333940023303887
0.0013021160808150659
0.0012710609820366719
0.0012416462617702022
0.001215013381254541
0.0011926914709769003
0.0011766091896693424
0.0011701743057321795
1.902986175514263e-06
6.449520329395026e-06
2.0879859781156648e-05
4.505253514061266e-05