# vtk DataFile Version 2.0
time_10.vtk
ASCII
DATASET UNSTRUCTURED_GRID
POINTS   4141  float 
7.572983214493853e-05         4.181986732743926e-17         0.0                           
0.2500000000000003            7.213956035081453e-05         0.0                           
0.5000700739906206            1.9412461854144097e-16        0.0                           
0.75                          6.532577238782804e-05         0.0                           
1.0000626178718195            -4.64076857478065e-18         0.0                           
1.2500000000000002            5.6486735155695055e-05        0.0                           
1.500053051009461             -3.588826312385103e-17        0.0                           
1.7499999999999993            4.54250865954908e-05          0.0                           
2.0000412360486224            3.059328809694507e-17         0.0                           
2.25                          3.2125622710756496e-05        0.0                           
2.500027219148882             -1.8298653217103824e-18       0.0                           
2.75                          1.676400916347963e-05         0.0                           
3.000011258523956             -5.31504251795912e-18         0.0                           
3.25                          4.433660158504862e-18         0.0                           
3.4999934368060397            -6.948723170302845e-17        0.0                           
3.75                          -1.973927597535231e-05        0.0                           
3.999973528280044             -8.462625037275682e-17        0.0                           
4.25                          -4.027997145976185e-05        0.0                           
4.49995264950693              -8.977097996959745e-17        0.0                           
4.75                          -6.180638409082021e-05        0.0                           
4.999930812500096             -9.574279653069078e-17        0.0                           
5.25                          -8.425790901585058e-05        0.0                           
5.4999080462404635            2.928630656265111e-17         0.0                           
5.75                          -0.00010769875040868105       0.0                           
5.999884233051956             7.258703012064794e-18         0.0                           
6.249999999999999             -0.00013235718730180158       0.0                           
6.499859090446387             3.988380816482976e-16         0.0                           
6.75                          7.547538934021517e-05         0.0                           
7.000073767780246             5.000657243217886e-06         0.0                           
7.2500054663387274            6.982739603832049e-05         0.0                           
7.500067562330785             6.4717323224988045e-06        0.0                           
7.750007006402687             6.237422812601486e-05         0.0                           
8.000059429818675             8.12500817941613e-06          0.0                           
8.250008702587236             5.280322229639172e-05         0.0                           
8.50004911300363              9.878037601877039e-06         0.0                           
8.750010469497418             4.0975640767088294e-05        0.0                           
9.000036533887256             1.164461037605792e-05         0.0                           
9.250012222553087             2.6933486389944306e-05        0.0                           
9.500021792444937             1.3345741990268122e-05        0.0                           
9.750013885507634             1.0880767799629267e-05        0.0                           
10.000005111090442            1.4909574570304144e-05        0.0                           
1.550436449968287e-05         0.29999289776873816           0.0                           
0.24998647752096256           0.3000165425310619            0.0                           
0.5000169918807037            0.2999731708438643            0.0                           
0.7499663257693867            0.30001786530748137           0.0                           
1.0000182903103374            0.2999522907662462            0.0                           
1.2499451114638973            0.30001912355403415           0.0                           
1.5000195360819009            0.2999304456456098            0.0                           
1.7499229606441589            0.3000203660906153            0.0                           
2.000020789436905             0.2999076755729149            0.0                           
2.2498998648818174            0.30002166818386333           0.0                           
2.5000221297505525            0.29988386469561906           0.0                           
2.749875652029771             0.3000231119762829            0.0                           
3.0000236379762955            0.29985872962360244           0.0                           
3.2498499863313843            0.3000247713575676            0.0                           
3.5000091075486828            0.30007301301158035           0.0                           
3.750071144014787             0.30001091794184254           0.0                           
4.000011902092241             0.3000668273835817            0.0                           
4.250064349984008             0.3000140046111005            0.0                           
4.500015111539616             0.30005869732745555           0.0                           
4.750055504697895             0.3000174053273054            0.0                           
5.00001857912524              0.30004836047282885           0.0                           
5.250044405151922             0.3000209481454951            0.0                           
5.5000221309716935            0.30003573500764724           0.0                           
5.7500310288055285            0.30002446478269584           0.0                           
6.000025605810955             0.30002090642374274           0.0                           
6.250015504069558             0.30002781795096556           0.0                           
6.500028889135734             0.30000403120476826           0.0                           
6.749997997050315             0.30003102894911665           0.0                           
7.000032067009411             0.2999853885519949            0.0                           
7.249978827542195             0.30003397346710337           0.0                           
7.500034867021565             0.2999652675417264            0.0                           
7.7499582985875195            0.3000365889379271            0.0                           
8.000037426445608             0.29994402780949087           0.0                           
8.249936736738436             0.3000390777774699            0.0                           
8.500039902182273             0.29992185476339006           0.0                           
8.749914262200827             0.3000415776831192            0.0                           
9.000042441157275             0.2998987534090831            0.0                           
9.249890822324424             0.3000442508834401            0.0                           
9.500045209319534             0.29987455339159136           0.0                           
9.749866188082088             0.30004726145427146           0.0                           
10.000048364973013            0.29984891374502015           0.0                           
7.34376092685335e-05          0.6000136180721961            0.0                           
0.2500149368017453            0.6000698985666316            0.0                           
0.5000678533244517            0.600017820545083             0.0                           
0.7500193721073409            0.6000631297544067            0.0                           
1.000060424644927             0.6000226529239976            0.0                           
1.2500243634461623            0.6000542774070755            0.0                           
1.5000508220778033            0.6000278755728259            0.0                           
1.7500296574436625            0.6000431323765177            0.0                           
2.000038898405705             0.600033225429938             0.0                           
2.250034994098424             0.6000296679387856            0.0                           
2.5000246824218766            0.6000384633352337            0.0                           
2.750040152843986             0.6000140046616516            0.0                           
3.000008327467632             0.6000434339569389            0.0                           
3.250045029619557             0.5999963643882645            0.0                           
3.499990111834048             0.6000481084045932            0.0                           
3.7500495669914993            0.5999771119480033            0.0                           
3.9999703836434666            0.6000523173734188            0.0                           
4.250053627272042             0.599956532283701             0.0                           
4.499949431653936             0.6000561602729453            0.0                           
4.750057398745144             0.5999349184397488            0.0                           
4.999927514115519             0.6000598603842459            0.0                           
5.250061101238752             0.5999124136526708            0.0                           
5.499904712031362             0.600063649850148             0.0                           
5.75006497681024              0.5998889747370746            0.0                           
5.999880919606485             0.6000677832528024            0.0                           
6.250069280550169             0.5998643712519226            0.0                           
[...]
POINT_DATA  4141
SCALARS Con float 1
LOOKUP_TABLE default
0.0006667899212377723
0.0007393603877953466
0.000882267308544285
0.001050912157663625
0.001243312465985925
0.0014603053268676892
0.0017025640828376798
0.0019703517533724833
0.002263479620813086
0.002581296469828495
0.002922695229521621
0.0032861346300320157
0.0036696725503249012
0.004071005202203973
0.004487502470643644
0.00491622216795093
0.005353896850602603
0.00579689039296505
0.006242295228507689
0.0066973614300395905
0.0072296952299066896
0.007767408634591632
0.00824017747982128
0.008688917822612883
0.009141773590226634
0.00959691862963918
0.01005464693205033
0.01051576709923747
0.010981942153159901
0.011455511972829485
0.011939401668566345
0.012437043698807397
0.012952313087019673
0.013489467406568291
0.014053087644565566
0.014648016940799802
0.015279289863807655
0.01595196629000561
0.016669661739537878
0.017413629318003523
0.01784230137332254
0.0006794463619588499
0.0007538535255765557
0.0008997847138027862
0.001071739046171445
0.0012677396301241585
0.0014885644335308962
0.0017348255797361126
0.0020067204979649345
0.00230399400275273
0.0026259309437527073
0.002971367167030197
0.0033387172558893997
0.003726017853104766
0.004130985793006842
0.004551093148982506
0.004983677967198938
0.005426140821603897
0.005876633111633047
0.006335366136874318
0.006817534888473783
0.007311126000746074
0.007798900606552689
0.008273491749488233
0.008741663311239488
0.009202130266350982
0.009661193789134876
0.010120797201902397
0.010582893019335312
0.011049676199941075
0.011523800558358938
0.012008396165013807
0.012507048382287046
0.013023757796021178
0.013562892108307852
0.014129132743184981
0.014727416191335635
0.015362863861847598
0.016040617246727378
0.016764336886302217
0.01751555102180173
0.01794890792167334
0.0006724626739621368
0.0007467372730549801
0.0008928138541789206
0.0010653240500192644
0.001262253733677366
0.0014843707654643237
0.0017322684805615698
0.0020061232402523955
0.00230565880993406
0.0026301426943913906
0.0029784028137899037
0.0033488651799796366
0.0037396154116517287
0.004148491144936919
0.004573224024273955
0.005011669992935058
0.005462259483652352
0.005924544060901403
0.006401485102899414
0.00687804459185848
0.007331035995807081
0.007786907132757523
0.008266274023148664
0.008742618739923555
0.00921175473458702
0.009675340948400137
0.010136694366998197
0.010598537675669612
0.011063638645264096
0.011535005917233292
0.012016008290104196
0.01251040791747685
0.013022353986128363
0.013556354114794106
0.014117232677808603
0.01471007932244423
0.015340182971077186
0.016012865297910416
0.016731987086153872
0.01747908303331769
0.017910115635624824
0.000660288192859327
0.0007345238750592599
0.0008808886327251938
0.0010543023907266472
0.0012527592003019569
0.0014770019162283381
0.0017275913941221643
0.002004665825152018
0.002307908527860191
0.0026365478346954533
0.0029893784803485066
0.0033648057845923384
0.0037609156969523865
0.004175575610948918
0.0046065703169472045
0.005051774307993765
0.005509236474549725
0.005977102254278837
0.006449068523679062
0.006916252090666085
0.007378470861470127
0.00783952234222608
0.008304374205817585
0.008774813941100726
0.009242798254177667
0.009706402378576848
0.010166705347115357
0.010626026176467258
0.011087130399012275
0.011553170129317811
0.012027685960576018
0.012514618209648023
0.013018300160567845
0.013543435513492035
0.014095063004413301
0.014678509878459122
0.0152993284783535
0.015963129521317582
0.016674079996964825
0.017414181244846946
0.017841798937062277
0.0006431081059819155
0.0007172859581601361
0.0008640852078079264
0.0010387959224757238
0.0012394177733428392
0.0014666587725752321
0.0017210306249303363
0.0020026131429481567
0.0023110244113238054
0.002645422438141198
0.003004527351188115
0.0033866643338655773
0.0037898270043076176
0.004211756999455339
0.00465002530474354
0.005102059673682808
0.005565032766172311
0.006035013884319505
0.00650718179640616
0.006977571568280784
0.0074441552724310335
0.007908570465553747
0.00837303009055934
0.008837162027524863
0.00929982203955234
0.009759011545563478
0.010214736805225768
0.010668481823056672
0.011122678887629057
0.011580400616723352
0.012045248603617154
0.012521301430321067
0.01301308208857638
0.013525526070628468
0.014063944212809647
0.014633977029452443
0.015241532372769885
0.015892619719155576
0.016591862286945574
0.017321982968538447
0.01774475281350467
0.0006208043950802502
0.0006949300136644855
0.0008423256602495411
0.0010187450383735113
0.0012221893118561115
0.0014533175830509946
0.0017125747202001273
0.001999960275790209
0.0023149998979610856
0.00265674636480866
0.003023798828076929
0.00341433898831109
0.003826180834580318
0.004256825032404834
0.00470349680871982
0.005163136498967038
0.005632264220322897
0.006107011794987821
0.0065834676543100705
0.0070583495627479995
0.007529951239331367
0.007997903480397212
0.00846245771328967
0.00892368896504493
0.00938092162854173
0.009833687970180985
0.010282090839917385
0.010727324329984586
0.011171555486089325
0.011617745526694269
0.012069514355401025
0.012531058838043634
0.0130070978854986
0.013502828848774764
0.014023885664524548
0.01457629265991268
0.015166404087552364
0.0158007432259404
0.016484541564215405
0.017201449278743536
0.01761773345575653
0.0005932821381584047
0.0006673676700007065
0.0008155404009211666
0.0009941004768136568
0.0012010444960713093
0.0014369676325428167
0.0017022299280433188
0.0019967294026787784
0.0023198732701462167
0.002670576409712352
0.003047275607869293
0.0034479578734711064
0.0038701992706383125
0.00431120679481438
0.004767853297431815
0.00523669468116033
0.005714021947379769
0.006196002321894846
0.006678983085459239
0.007159928706857331
0.007636688816388139
0.008108040727802343
0.008573368126238741
0.009032265562578799
0.009484463525992134
0.009929896035671088
0.010369071489955084
0.010803256943201235
0.011234580491791475
0.011665983565889975
0.012101141428974123
0.01254439026985668
0.01300066951495784
0.01347547440933562
0.013974812960195091
0.014505161425305765
0.01507340804864879
0.015686699940934475
0.01635100647661973
0.017051114846864182
0.017459095326796882
0.0005604918941782505
0.0006345536311120668
0.0007836947849738881
0.0009648421618445182
0.0011759786972088265
0.0014176200043725484
0.0016900246340795521
0.00199297069107553
0.00232572531875843
0.0026870390805936797
0.003075154459344876
0.0034878277671757467
0.003922362915185187
0.004375654548496215
0.004844239173924111
0.005324365542339243
0.005812103287909867
0.006303519215011896
0.006794921348619597
0.0072831098652695134
0.0077655651314847115
0.008240475667508818
0.008706640984156588
0.009163340377077644
0.009610251603801995
0.010047517510603524
0.01047585832215778
0.010896713793235306
0.011312312221812108
0.011725684500411893
0.012140631718242785
0.012561678341092782
0.01299402581347099
0.013443510977635928
0.013916568037254433
0.014420190182665911
0.014961881109752816
0.015549511749256313
0.016189915345004108
0.016869254469979306
0.0172668911547129
0.0005224717282660634
0.0005965207710866833
0.0007468173773160988
0.0009309986975713414
0.0011470225723098945
0.0013953095585513436
0.0016760029234811982
0.0019887474743787753
0.002332655293222228
0.0027062942331325503
0.0031076899316222206
0.0035343425071169606
0.003983259204884085
0.004451004313330228
0.00493377012371652
0.005427475586618324
0.005927902371135149
0.006430870924635478
0.006932442319711766
0.007429113928679534
0.007917962098774406
0.0083967095128791
0.008863721292216143
0.009317969141273258
0.009759016250373547
0.010187038060422647
0.010602885935426876
0.011008152802343896
0.011405224176844789
0.011797294964132813
0.01218835991838806
0.012583187636016626
0.012987289665471437
0.01340689069572696
0.013848901201334689
0.014320890364049725
0.014831050053105511
0.015388066751556621
0.01599976081718452
0.016653922084006498
0.01703891377685783
0.000479394942678657
0.0005534223647378111
0.0007050311429013874
0.0008926670374892122
0.001114249795522666
0.0013700906947008596
0.001660208595219264
0.0019841087534221633
0.0023407416652514407
0.0027284827988729296
0.003145126129886443
0.003587894964354203
0.004053473849188223
0.004538065260698843
0.005037474749344825
0.005547228028648548
0.006062720654437771
0.006579394637542748
0.007092926958654413
0.007599406311666453
0.008095475055180847
0.008578421762758295
0.009046227748981542
0.009497585407757034
0.009931909086952873
0.010349355753635634
0.010750854911923338
0.011138142210032629
0.011513783801031695
0.011881186355665232
0.012244591967913896
0.012609063852984492
0.012980468779162386
0.01336546119568708
0.013771470668985578
0.01420669112635125
0.014680063196496288
0.015201168558499718
0.015778928448864905
0.016403022101254276
0.01677277326321822
0.0004316249647667184
0.0005055794435224343
0.0006585869714387277
0.0008500311034101051
0.0010777804184673606
0.0013420255440217395
0.0016426588304265446
0.0019790494023934225
0.002349990216037927
0.0027536642981106653
0.0031876258101352565
0.0036488020231300296
0.004133522299986955
0.0046375790642975544
0.005156323944301525
0.005684799524596221
0.006217902915316357
0.006750571754690561
0.007277977568432577
0.007795708259229883
0.008299922806157227
0.008787468138344013
0.00925595747153156
0.009703817645839247
0.010130317177495091
0.0105355843948536
0.01092062145482445
0.011287313873016293
0.01163843456464604
0.011977640897859776
0.012309466519539652
0.012639311387649257
0.012973434358597338
0.013318951524660276
0.01368384151229109
0.014076956097669067
0.014508027464807874
0.014987593619125128
0.015525774037864693
0.016114403883988708
0.016466000555446246
0.0003797759081304358
0.0004535319914445691
0.0006078976592292484
0.0008033774451342727
0.0010377779014696749
0.0013111628065288732
0.0016233060642349417
0.001973457197326885
0.002360269266370779
0.0027817443669794677
0.003235195762399528
0.003717235749992365
0.004223797854656014
0.004750199669687234
0.005291249210428618
0.005841393232548649
0.006394900742969916
0.006946069728935958
0.007489441062738385
0.008020002067974178
0.008533364230077176
0.009025904709231376
0.009494868119429793
0.00993843150551016
0.010355739230202414
0.010746915988678645
0.011113064950663323
0.011456256360924282
0.011779510725455052
0.012086780188122525
0.012382932024390315
0.012673738560518089
0.012965877230520962
0.013266943420995455
0.013585476613369394
0.013930997732869503
0.014314048765040055
0.014746159102371146
0.015238719058165689
0.015785983243269328
0.016116182566701196
0.000324775344981165
0.00039809072266657397
0.0005535693509147101
0.0007531051606921912
0.0009944373545332289
0.0012775050138415496
0.0016019861008339641
0.0019670448585914733
0.002371230109911737
0.0028123895763438387
0.003287603575044391
0.003793151066221492
0.004324519899311276
0.004876469520161069
0.005443149260743267
0.006018269095501905
0.006595313328821301
0.00716778198028731
0.0077294408424327405
0.008274560363129636
0.00879812570573948
0.009296005528185792
0.009765073399592867
0.010203282320779154
0.010609697793206113
0.010984497962777133
0.011328950586856346
0.011645376233841239
0.01193710660722876
0.012208445631199714
0.012464640244354173
0.012711866548609068
0.012957235742013684
0.01320882233107096
0.013475714817218985
0.013768086090314643
0.014097274107871332
0.014475800308836025
0.01491636450875796
0.01541589144058294
0.015721129954985546
0.00026792343630523515
0.00034038389302536913
0.0004964258960748974
0.0006997265285299093
0.0009479623210133075
0.0012409623484140194
0.0015783509536959305
0.0019592654674834265
0.002382210490091668
0.0028449264233950953
0.0033442812429487646
0.003876203833133265
0.004435675511017474
0.005016790949902048
0.005612892456735154
0.006216773000820431
0.006820934894703675
0.00741788391109526
0.008000434254986245
0.008561998974073615
0.009096843463553092
0.009600285717973563
0.010068834866576204
0.010500267487856022
0.01089364807549336
0.011249304787711854
0.011568774254159317
0.01185472979491504
0.01211090663233244
0.012342036055914956
0.012553798279971927
0.012752801704847163
0.01294659372287648
0.013143706001121509
0.013353734437081493
0.013587450643452851
0.013856934117316016
0.014175656283600601
0.014557621576623572
0.015002651037395471
0.015279078005369052
0.0002109379923096711
0.00028189034299621165
0.0004375196261374821
0.0006438542535502293
0.0008985284072466881
0.0012012928100460602
0.00155178679748652
0.0019492114526329478
0.002392120642385269
0.002878223327680103
0.003404213983801024
0.003965658028132034
0.00455695543046198
0.005171398210817334
0.005801327337652059
0.006438382696847437
0.00707382798217652
0.0076989224927494085
0.008305305927752119
0.00888536149683367
0.009432526962135219
0.00994153177678718
0.010408549361116992
0.010831264690413817
0.01120886687538864
0.011541983304180282
0.011832575380402239
0.012083816817872451
0.012299973667059667
0.012486302585711113
0.012648980033864624
0.012795071764451136
0.012932548396940642
0.013070350276731096
0.013218502195147131
0.013388275449275124
0.013592386595871732
0.013845162167428003
0.01416185669213307
0.014545375775599485
0.014788917621155341
0.00015597023445663896
0.00022444581571492018
0.00037812019352086325
0.000586172493778751
0.0008462349514484865
0.0011580325787876222
0.0015213213088694792
0.0019355005227333407
0.002399314573184008
0.002910557765791785
0.0034658163778236435
0.0040602851393042065
0.0046876900190357
0.005340339914598119
0.006009315739374545
0.006684788753180188
0.007356442358031632
0.008013957355825857
0.00864751183965803
0.00924824605233463
0.009808649516480987
0.010322840820913842
0.010786726943618081
0.011198045240785477
0.01155630495332498
0.011862654066180905
0.012119701589388356
0.012331325043918423
0.01250248952143076
0.012639099520667985
0.012747898937683437
0.012836429231130675
0.012913051399861654
0.012987034192115334
0.013068709088936625
0.0131696917335022
0.013303163569625163
0.01348415204303128
0.013729045881550677
0.01404398771113688
0.014250453661572208
0.00010556734171297451
0.00017020453385552272
0.00031967363416901057
0.0005273915754305715
0.0007910536570611604
0.0011104269850363518
0.001485528241186448
0.0019161565117515014
0.0024014547542734865
0.002939476312238068
0.003526803117262147
0.004158263544461433
0.004826795089951396
0.005523485416847141
0.006237806621505816
0.006958032659151884
0.007671803452109567
0.008366776484845928
0.009031293318913567
0.00965498748927806
0.01022927208183539
0.010747666738750362
0.011205949872768498
0.011602146742930409
0.011936383504557372
0.012210648842136495
0.012428508343928026
0.012594813864464396
0.012715442657697428
0.01279709226071973
0.012847147699868557
0.012873630227931612
0.01288523086012537
0.012891428632801084
0.012902692339050817
0.012930765297189636
0.012989037755512729
0.013092971549858825
0.013259948394811705
0.013499438532590889
0.013664658107823089
6.256122007785175e-05
0.00012153524175849985
0.00026372114439345744
0.00046820803174081084
0.0007327944723646688
0.0010573681613660392
0.0014424405723934084
0.0018885018379149426
0.0023953881684861925
0.002961664126453892
0.003584068566937766
0.004257090750006465
0.004972741510382699
0.005720572869928096
0.006487973583231322
0.007260730191048224
0.008023801424484136
0.008762216434770022
0.009461985328730603
0.010110909989974118
0.010699203651116691
0.01121986498822993
0.011668794566477235
0.012044680615259897
0.012348708279806993
0.012584160072284455
0.01275597530525227
0.012870327245312027
0.01293426228323849
0.012955430068536729
0.012941919854831847
0.012902207931766094
0.01284521426390524
0.012780463205187878
0.012718342470494642
0.012670457411866993
0.012650079015793764
0.012672699464500175
0.012756264535117771
0.01291394116470438
0.013033994551802656
3.273265470643602e-05
8.083040157924797e-05
0.00021185129100544076
0.00040930079423937964
0.0006710534016863182
0.0009973414428546424
0.0013895009096631114
0.0018490988004709176
0.0023770708046789222
0.0029728552610221353
0.0036335999612302824
0.004353528659975865
0.005123568026526932
0.005931321902313728
0.006761445973554435
0.007596416936221257
0.008417621309921821
0.009206625001306567
0.009946447351466445
0.010622662788568077
0.011224192522552747
0.011743712988038765
0.01217768059118151
0.012526032254620099
0.012791659876995166
0.012979768103394393
0.01309721679852995
0.013151927105226996
0.013152403723071674
0.013107400902856111
0.013025740194383113
0.012916275063904893
0.01278799131557227
0.012650230188869769
0.012513023417381397
0.012387531091291471
0.012286580889064492
0.012225257714292295
0.012221416707680493
0.012291096237154405
0.01236225239049203
1.3463206029250927e-05
5.039803774481539e-05
0.00016562950170996736
0.00035119354522357936
0.0006052310067776979
0.0009285890527861007
0.0013238003977908963
0.0017940163031564403
0.002341828281927764
0.0029680762654491015
0.003670714707857622
0.004443865788660781
0.005277210728891731
0.006155868921651371
0.007060866965531186
0.007970210179029855
0.008860448635966807
0.009708518298716556
0.01049356680956699
0.011198477838177465
0.011810880112985037
0.012323548589145075
0.012734228267769359
0.013045008337087546
0.013261420577744954
0.013391440184694892
0.013444534698784883
0.01343086241034927
0.013360673706773057
0.01324393157815473
0.0130901412156153
0.012908365833301499
0.012707402103781774
0.012496092387815178
0.012283757924268853
0.0120807460221279
0.01189908379000527
0.01175325304605786
0.011660583931289967
0.011639435329938814
0.011658058449113502
0.0005509040540786394
0.0008699486077905032
0.0017482082864495186
0.0037275477910804038
0.004561351939116358
0.006426001954588039
0.007414879704591064
0.009369305021792208
0.010276848705167057
0.011829213349976322
0.01244146126352652
0.0129340218935704
0.013307142646114916
0.01356625576361305
0.013720556696938743
0.013781560114254849
0.012597125888230592
0.012318332477051355
0.011286036171890921
0.011111851728452101
0.010974731231330833
4.935403950471854e-06
3.421572833057962e-05
0.00013337007656096742
0.0003059577479529874
0.001267302814770089
0.002317408756633969
0.0029775376186954756
0.005466909227734295
0.00840580127678804
0.011103354026219274
0.01376182619797292
0.01367396720056149
0.013529973103641001
0.013340843733157115
0.013116487208001171
0.012865834640038848
0.012037699281626306
0.011764402277373189
0.011509338559972476
0.01100629666090622
6.7235135713218245e-06
2.6977006075669315e-05
0.00011000277089177843
0.0002684728815329303
0.0005010931418720548
0.000810197429943086
0.001201142072238432
0.001680778805532968
0.0022556604431931584
0.002930152222775839
0.003704516118220258
0.004573182335299793
0.005523505203508441
0.006535340563874458
0.0075817142792615425
0.008630662976660616
0.009648052622341653
0.010600904357946653
0.011460596220495802
0.01220533656642642
0.012821515670226272
0.01330384183258287
0.013654445732952051
0.013881305859315672
0.013996390643990844
0.014013854291202828
0.013948515002797783
0.013814727981453678
0.013625672530371094
0.013393012390943832
0.01312686034911661
0.012835975091462743
0.012528129319099272
0.012210607225347388
0.011890810784940604
0.011576971800304479
0.011278992419977834
0.011009411313149824
0.010784571405722166
0.010624631514061934
0.010561924183356816
1.3360606254148238e-05
2.4471825829326835e-05
9.263426930350632e-05
0.0002377112175250696
0.000458508488021912
0.0007578977424951575
0.0011425115927999935
0.0016209430350326243
0.002201731934607943
0.002891166519612714
0.0036909929819162824
0.00459626032572314
0.005593679110033288
0.006660946778938482
0.007767432105084043
0.0088763745085162
0.009948376288520666
0.010945571213637203
0.011835614782161151
0.012594681344025319
0.013208959834412365
0.013674570427604834
0.01399620209925275
0.014184979146040149
0.01425608707544985
0.014226578370247215
0.01411361433904593
0.013933241882051315
0.01369968883845809
0.013425096568311742
0.01311958596968856
0.012791559761887132
0.012448165865082909
0.01209587380383063
0.011741141746681682
0.011391178882572796
0.011054802168639426
0.010743494687513944
0.010472225270321609
0.010263769250007807
0.010174470027194809
2.3402537101051654e-05