# vtk DataFile Version 2.0
time_10.vtk
ASCII
DATASET UNSTRUCTURED_GRID
POINTS   4141  float 
0.00010145408781711441        -2.7945073962805095e-18       0.0                           
0.25                          9.641670119239184e-05         0.0                           
0.5000935530888461            2.0330952928140957e-17        0.0                           
0.7499999999999998            8.703823860045759e-05         0.0                           
1.000083354561531             3.507013339892111e-18         0.0                           
1.25                          7.507327520119928e-05         0.0                           
1.500070459546382             1.0462392683206247e-17        0.0                           
1.75                          6.0267337913621324e-05        0.0                           
2.0000546900353022            -4.771433250980479e-17        0.0                           
2.25                          4.25969132246285e-05          0.0                           
2.5000360990281516            4.409592186610808e-16         0.0                           
2.75                          2.2271070669380826e-05        0.0                           
3.0000149886931315            1.2615897585813192e-16        0.0                           
3.25                          -4.106889277630535e-17        0.0                           
3.4999915154949015            -1.496845748091021e-16        0.0                           
3.75                          -2.565882035944161e-05        0.0                           
3.999965542794108             1.77083998159978e-16          0.0                           
4.25                          -5.251685306625101e-05        0.0                           
4.499938230783298             1.4183786531139643e-16        0.0                           
4.75                          -8.06954919408652e-05         0.0                           
4.999909635666687             2.5241110188793053e-18        0.0                           
5.25                          -0.00011011693536932641       0.0                           
5.499879790574319             -4.7292680662525545e-17       0.0                           
5.75                          -0.00014086784772333178       0.0                           
5.999848542189337             -3.2551733707289206e-18       0.0                           
6.25                          -0.00017323701168705426       0.0                           
6.499815536311052             -3.2225017606227253e-16       0.0                           
6.75                          0.00010112984643491604        0.0                           
7.000098722779471             7.0193276891316745e-06        0.0                           
7.250007613014341             9.323892118049056e-05         0.0                           
7.50009012071073              8.895342433771521e-06         0.0                           
7.750009577559298             8.304410116728676e-05         0.0                           
8.000079058224808             1.10053257872673e-05          0.0                           
8.250011742745269             7.014359959407775e-05         0.0                           
8.500065204438826             1.324391299530946e-05         0.0                           
8.750013999526523             5.435797167901183e-05         0.0                           
9.000048457216744             1.5501617539356514e-05        0.0                           
9.250016241033128             3.57365242124745e-05          0.0                           
9.50002893806564              1.7680444920846063e-05        0.0                           
9.750018374226618             1.4528971446779785e-05        0.0                           
10.000006925345918            1.9697794930208117e-05        0.0                           
2.043446065723494e-05         0.2999908909288047            0.0                           
0.2499824891216275            0.30002175062284275           0.0                           
0.5000223354247044            0.2999650880467308            0.0                           
0.7499561343015864            0.3000234723264194            0.0                           
1.0000240264760185            0.2999377687637593            0.0                           
1.2499283702909971            0.30002511577197855           0.0                           
1.5000256564784584            0.2999091616134963            0.0                           
1.7498993527711062            0.30002674650356403           0.0                           
2.0000273030483084            0.2998793110317283            0.0                           
2.2498690643520725            0.30002845786294535           0.0                           
2.500029063514199             0.2998480654621802            0.0                           
2.74983728424812              0.3000303486530752            0.0                           
3.000031034352813             0.2998150691635817            0.0                           
3.249803594088159             0.30003250574063756           0.0                           
3.500012899500667             0.30009776106923175           0.0                           
3.7500951482916207            0.30001520721837543           0.0                           
4.000016462317287             0.30008918437961357           0.0                           
4.250085794998737             0.30001914485962783           0.0                           
4.500020557673749             0.30007812465126504           0.0                           
4.750073821348571             0.30002348616735913           0.0                           
5.000024985141827             0.3000642445721925            0.0                           
5.250058966274365             0.30002801129496276           0.0                           
5.50002952278608              0.3000474385272454            0.0                           
5.750041200027032             0.3000325069040921            0.0                           
6.000033967192534             0.300027815313583             0.0                           
6.250020687782885             0.30003680159981166           0.0                           
6.500038174653361             0.30000559147213196           0.0                           
6.7499976641860995            0.300040896476504             0.0                           
7.000042215573108             0.2999811229936859            0.0                           
7.2499725280252045            0.3000446672852345            0.0                           
7.500045825910062             0.29995477724109              0.0                           
7.749945655475038             0.30004806647145843           0.0                           
8.000049159762373             0.2999269720399374            0.0                           
8.249917422983565             0.30005132180749944           0.0                           
8.50005240381941              0.2998979227462821            0.0                           
8.749887968784726             0.30005460591433597           0.0                           
9.000055741091925             0.2998676259820376            0.0                           
9.249857218111778             0.3000581174203189            0.0                           
9.50005937303882              0.29983586215294633           0.0                           
9.749824879811246             0.300062052107652             0.0                           
10.000063486933149            0.2998022048152103            0.0                           
9.853313407956867e-05         0.6000192937759976            0.0                           
0.2500209744653827            0.6000935615100988            0.0                           
0.5000907239454037            0.6000246516605249            0.0                           
0.7500266311065787            0.6000842403100761            0.0                           
1.000080559782146             0.6000308183928119            0.0                           
1.25003300221057              0.6000722565656933            0.0                           
1.500067616957915             0.6000374871899518            0.0                           
1.7500397631178415            0.6000573418921916            0.0                           
2.0000517070795576            0.6000443215606794            0.0                           
2.25004658200121              0.6000394635948517            0.0                           
2.500032869428016             0.6000510181195003            0.0                           
2.750053179681253             0.600018782013876             0.0                           
3.000011309561476             0.600057376618249             0.0                           
3.2500594147096664            0.5999955901556522            0.0                           
3.499987382720667             0.6000633471079517            0.0                           
3.7500652182050236            0.5999703354798126            0.0                           
3.9999615203252237            0.6000687689957312            0.0                           
4.250070468953155             0.599943380855453             0.0                           
4.499934082676232             0.6000737692241236            0.0                           
4.750075388526941             0.5999150735784292            0.0                           
4.999905371972737             0.6000786161732777            0.0                           
5.250080246383843             0.5998855769867463            0.0                           
5.499875475995138             0.6000835968839865            0.0                           
5.750085340405787             0.5998548264138687            0.0                           
5.999844253104728             0.6000890204111753            0.0                           
6.2500909779000295            0.5998225277233225            0.0                           
[...]
POINT_DATA  4141
SCALARS Con float 1
LOOKUP_TABLE default
0.0013397132256151565
0.0014670722491026621
0.0017204061019027031
0.002017603384652818
0.0023546306501714834
0.002732653590335705
0.003152593477929719
0.0036146918093497684
0.004118447985395593
0.0046626111567892635
0.0052452020209995875
0.0058635604713425165
0.006514413894784072
0.007193957474260482
0.007897933213728265
0.008621683623509542
0.009360183847714915
0.010107978195164126
0.010861038308786807
0.011626186984907987
0.012487085558800015
0.013359156087706667
0.014155083546151045
0.014914411758561013
0.015679487283301763
0.016448151408665325
0.01722147010401416
0.01800115794245417
0.01879015976392447
0.0195924047290917
0.02041267530308123
0.021256487378134136
0.022129985343627097
0.023039841582355017
0.023993155768470362
0.02499735052019337
0.026060054328289315
0.027188845584803435
0.028388982833670084
0.029629731888188484
0.030341844385278056
0.0013667818846001955
0.0014973513870252578
0.0017560306166649418
0.002059007668656254
0.002402263642115191
0.00278686078679582
0.0032136153693544754
0.0036826572064691584
0.004193372874804885
0.004744402647936341
0.005333668490202429
0.005958430003074102
0.006615365713698924
0.007300677374250051
0.008010218072882845
0.008739667954850969
0.009484806516633774
0.010242486985886767
0.011011844197574634
0.01181443153784271
0.012632083170096302
0.013439335733378134
0.014228993917310745
0.015014359863436381
0.015789319643561596
0.016563119386932317
0.017338847147455934
0.01811978391696754
0.01890961234481573
0.019712711800524217
0.020534168123683704
0.02137973020583828
0.022255737988770917
0.023169037812186207
0.024126889251312646
0.02513686417400814
0.0262067301950498
0.027344195909808515
0.028554579592449166
0.02980754974749162
0.030527479946822745
0.0013541636860107558
0.001484550245856356
0.0017435667243654177
0.002047608660045514
0.002392580134837887
0.0027795197545533454
0.003209203336113748
0.0036817146007116345
0.004196391713721856
0.004751829488896858
0.00534591523356452
0.005975898029109504
0.006638494155568765
0.007330036582653592
0.008046691842620489
0.008784791405016184
0.00954146366535687
0.01031530285728352
0.011109968854938208
0.011902933558522358
0.012667444657950756
0.013437240532199935
0.014234787118662325
0.01502814477313133
0.015813466805375
0.016592237675534513
0.017369251471037486
0.01814869419966761
0.01893498255690863
0.01973296561405445
0.020548060239260625
0.021386274188134366
0.0222541773702597
0.02315884263396981
0.024107768159345854
0.0251087860207931
0.02616995025038725
0.02729927404528358
0.028502388863941464
0.029748840028073438
0.03046498192045463
0.0013320943816249788
0.0014624828072847765
0.0017221448167731989
0.002027917155911967
0.0023757060384030954
0.002766495530233857
0.0032009925928436402
0.003679200033543848
0.004200368490313349
0.004763004037337779
0.0053649109063390625
0.006003269987897649
0.006674756149174086
0.007375699611685498
0.008102295254416527
0.008850861681546952
0.009617968563417952
0.010400425306778233
0.011188834873248099
0.01197189601460956
0.012748624803219887
0.013523635791720601
0.014303316559808512
0.015089292897997156
0.01587187368966593
0.016649239968669852
0.017423149903747093
0.018197261731343783
0.018975978511039417
0.019764349579528318
0.020568044368383546
0.021393345149824678
0.022247116657000868
0.02313675445005196
0.024070115221958552
0.02505543083992692
0.02610119696167215
0.027215902399452478
0.028405663455504902
0.029640731899768187
0.030351344777705038
0.001300904572967491
0.0014312930018279203
0.0016919224827651445
0.0020001881310269033
0.0023519866006864983
0.002748226371863763
0.003189512443298615
0.003675727621888807
0.004205988638998641
0.004778657070190968
0.005391384061642889
0.00604118810879745
0.006724564522036509
0.007437619597064305
0.008176209013694069
0.008936002819560952
0.009712374884439233
0.010499257888753966
0.011289746566691112
0.012077997422794536
0.012861081790228697
0.01364071346930227
0.014419377572943337
0.015196662047947425
0.01597124654354408
0.016741027262091833
0.017506611484709375
0.018270596706882247
0.019036979775777094
0.019810736423173818
0.02059765957038382
0.021404270960228827
0.022237757765344163
0.023105908824319718
0.024017042174295736
0.024979918874881282
0.02600363019820108
0.02709732573926739
0.028267868658024015
0.02948672694306242
0.03018961902549636
0.001260324998437953
0.0013907597469051318
0.0016527178833804625
0.0019642852978209845
0.002321336294181969
0.002724675020361398
0.003174769796056732
0.0036713418370226602
0.004213324221844638
0.004798873112150258
0.0054254096753960325
0.006089690043019489
0.006787897863771578
0.007515746399167895
0.00826856043252134
0.009041297763749314
0.009828399594181747
0.010623913021163858
0.011421925556204532
0.0122175566169293
0.01300804175756395
0.013792489326709786
0.014570970280008417
0.015343509234634432
0.016109446178977815
0.016868569649662553
0.017621591233688057
0.01837079198347624
0.019119862824985026
0.019873681472335963
0.02063812408683102
0.021419942849972635
0.022226675336149457
0.0230665664014287
0.02394848982829927
0.024881861161515736
0.025876527470242917
0.02694250421590677
0.028087685416559444
0.02928507508544504
0.029977557540361428
0.0012101021941552242
0.001340648484356269
0.0016043457662186765
0.0019200779388687693
0.002283680554510702
0.002695823166282742
0.0031568018925088826
0.0036661353886416966
0.004222524762721947
0.004823862547467783
0.0054672691650691115
0.006149153729867207
0.006865293580102339
0.007610921447323526
0.008380806159810222
0.009169311414825456
0.00997050923526116
0.010778398443179122
0.011587351116506592
0.012392671116956407
0.013190964104309805
0.013980180018869194
0.014759231874024805
0.015527527346035101
0.01628487176757909
0.017031560186810176
0.017768823510723595
0.018499057745223372
0.01922594921529935
0.019954406816045343
0.020690451891562597
0.021441110402450024
0.022214321345115157
0.02301885543543354
0.023864236461249033
0.024760657509839423
0.025718877944433564
0.026749974470179187
0.027863086104184514
0.02903306854058816
0.0297121324458312
0.001150037004665424
0.0012807774154824647
0.001546664193665583
0.0018674738766816697
0.002238980748342284
0.0026616880547785556
0.0031356857910042986
0.003660252909776094
0.0042338160144215955
0.00485395391666914
0.0055174276156014805
0.006220233981135984
0.00695768030007033
0.0077244753868681406
0.008514834361375451
0.009322611944177191
0.01014148533233194
0.01096522606112966
0.011788044467649637
0.012604939381183393
0.0134119481906157
0.014206201631585166
0.014985819085471268
0.01574976106441788
0.016497738879226335
0.017230293905277055
0.017948933333044013
0.018656300377728766
0.01935625594063932
0.0200538903168844
0.020755473299572717
0.02146838294882133
0.02220103134180289
0.022962793345055837
0.023763936710571316
0.02461554842186924
0.02552944390433437
0.026517931945626277
0.027591602674558697
0.028727549151678265
0.02938978830451113
0.0010800565925971504
0.0012110781278825108
0.0014796242855774854
0.0018064544364248469
0.0021872541250559543
0.0026223281429006134
0.0031115303054807743
0.0036538696971228093
0.004247465003309116
0.0048895419078970855
0.0055764554008018415
0.006303737965431011
0.00706617465509571
0.007857905781388874
0.008672560997360185
0.009503431526156894
0.010343691302929524
0.011186665205176985
0.012026124652049025
0.012856564538165575
0.01367340813877347
0.014473111774727149
0.015253179683860951
0.016012135180778316
0.01674951054013246
0.017465874760687634
0.018162908460834615
0.01884348032498644
0.01951170488674273
0.020172957559300434
0.02083385520265959
0.02150221361171764
0.0221869961379143
0.02289826071698461
0.02364710682217323
0.024445619301964296
0.025306796049578705
0.02624433400039957
0.027270479949793064
0.02836497672877466
0.029006519910586094
0.0010002982782146954
0.001131670222092925
0.0014033262052457816
0.0017371110042444832
0.0021285902243805984
0.002577839517857381
0.0030844532299846026
0.0036471507611401583
0.004263721482015512
0.004931010432529075
0.005644929891687728
0.006400501111053903
0.007191930667818809
0.008012725161245701
0.008855847304267814
0.009713915697033771
0.010579445906941296
0.011445122569969234
0.01230407990006175
0.013150160099479927
0.013978120556868175
0.014783774181558032
0.015564067523527219
0.016317118834484688
0.017042240643691624
0.01773996791710106
0.018412092951163358
0.01906170219619504
0.019693200890576093
0.02031231965782035
0.02092610174905242
0.021542877575266975
0.02217223335949336
0.02282497963508634
0.02351312110122718
0.024249825355746858
0.025049377797093316
0.025926999892308466
0.026896786539322853
0.0279415630204388
0.028558016661711975
0.00091120844347557
0.0010429471859925124
0.0013180810281074892
0.0016596811201119493
0.0020631607804628594
0.002528340088337362
0.0030545413853635
0.003640189168017852
0.004282737590602638
0.004978636985620146
0.005723328641110732
0.006511275901880736
0.007336039169396544
0.008190399972243858
0.009066536056693162
0.009956245066244006
0.010851208524903809
0.011743280587172833
0.012624779794741024
0.013488759246280865
0.014329234153751551
0.015141354852594737
0.015921525310924736
0.016667476619444017
0.01737831006730391
0.018054521981945657
0.018698018780441802
0.0193121238778863
0.019901576711650965
0.020472523185015926
0.021032499884270348
0.021590416091598476
0.022156538511259715
0.022742482049343073
0.023361207433477842
0.024027022686829606
0.024755575585283917
0.02556371785976298
0.02646755756672422
0.027453444509382773
0.02803985272371952
0.0008136548826753305
0.0009456721056546358
0.0012244757062998578
0.0015745808769342558
0.0019912193356314022
0.0024739376195731726
0.0030217897947712917
0.003632920663502619
0.00430446375253588
0.0050324771588343585
0.005811911757100297
0.006636624289833899
0.007499446316189964
0.008392315662096276
0.009306471264464437
0.0102327056498468
0.011161662142363696
0.012084157529175571
0.012991506660156964
0.013875825061258331
0.014730289526301404
0.015549344184963374
0.016328848386880403
0.01706617084780259
0.01776023927790993
0.0184115568330976
0.019022195683119844
0.019595776250274703
0.020137438958142673
0.02065381434081321
0.02115299710111984
0.021644529679390033
0.022139399709428884
0.022650054061378787
0.023190429248182532
0.023775994347874363
0.024423792962355206
0.025152369228119066
0.02597996838719746
0.02689690343758901
0.027447732915763103
0.0007090481362483214
0.0008410786705611923
0.0011234364421743442
0.001482428735832522
0.0019130857057857087
0.0024146767789498236
0.002986015310017633
0.003625010048895491
0.004328516214885777
0.005092223999101147
0.005910585750928284
0.006776800215320009
0.007682869268088436
0.008619735955756073
0.009577504157451703
0.010545730882790358
0.011513773503627806
0.012471167358126044
0.013408005554854321
0.01431529338792487
0.015185254247905747
0.016011571698926266
0.016789561207820776
0.017516273550394278
0.018190538350730503
0.018812960246083477
0.019385881868949215
0.019913327550274893
0.020400940807203338
0.02085592684359781
0.02128700988478636
0.021704413072033673
0.022119866607962897
0.022546646889000346
0.02299964598241313
0.02349546645611481
0.024052527071109876
0.024691068602458847
0.025431540528034032
0.02626863715162985
0.02677779599938084
0.000599463173220524
0.0007309690644570574
0.001016282989212966
0.0013840542990882626
0.0018291097710114736
0.002350460546120421
0.0029467403734646075
0.0036157047949403015
0.004354011169353673
0.005157036239893038
0.006018741601450411
0.0069316136852715865
0.00788670037315434
0.008873756323238354
0.009881496987905261
0.010897948498839398
0.011910869091445004
0.012908209282321555
0.01387857409130048
0.014811651776095433
0.015698579627977226
0.016532226793959937
0.017307385194138637
0.018020870264455664
0.018671542125121194
0.0192602638398974
0.019789816721560934
0.020264793297995933
0.0206914873936081
0.02107779839878201
0.021433163651379598
0.021768529715112582
0.02209636971751699
0.02243075045718849
0.022787448896759814
0.02318411241514047
0.02364044560506047
0.024178317897776747
0.02482037647837247
0.025566073993267303
0.026026975691625657
0.0004877452627673246
0.0006177946875192653
0.0009047628748579271
0.0012804842134121783
0.0017396101712584527
0.0022809436144000583
0.0029030452464983477
0.003603653860387971
0.004379362611784677
0.005225332117954473
0.006135063962799159
0.007100274860395821
0.00811090272954581
0.009155261572214315
0.01022034493586696
0.011292259883788517
0.012356757373074085
0.013399813342362208
0.014408209752508092
0.0153700670370441
0.016275288110470607
0.017115887490674556
0.017886194539839504
0.018582934715510972
0.019205204942937946
0.019754367779907522
0.020233893223101002
0.020649177867549006
0.021007368639168716
0.021317214563453438
0.02158896477193747
0.021834326272652572
0.022066489923823
0.022300229273768766
0.022552072981951343
0.022840546502955562
0.023186465688155855
0.023613171464280398
0.02414541805621596
0.024787729444118625
0.02519341273933122
0.00037757551082185097
0.000504698242693353
0.0007910505443745961
0.0011728989200589022
0.0016447877970374061
0.002205401585751185
0.0028533927580950066
0.0035866941221622665
0.004402045587760154
0.005294550423129698
0.006257314255801515
0.007281223716482496
0.008354907660212744
0.009464905269664129
0.010596041244363402
0.011731982858559665
0.012855929884441581
0.013951371707116904
0.015002838590714674
0.015996577910029557
0.01692109987079365
0.017767557624670305
0.01852994986622068
0.019205155596060047
0.019792828077096616
0.020295186020895372
0.020716744853200204
0.021064030089148672
0.021345310096896893
0.02157037846753086
0.021750408301569324
0.02189789327197882
0.02202668408142105
0.022152124391159718
0.02229128747877491
0.02246331378192142
0.022689839447419483
0.022995418151123992
0.023406718642289874
0.023933588472445123
0.024276910213797895
0.00027345476121020144
0.00039548549339279634
0.0006776967896555318
0.001062557884700502
0.0015446268665444793
0.002122590367433443
0.002795434582881377
0.003561613554085711
0.004418334961824067
0.00536088934342379
0.006382098948643007
0.0074719589914654366
0.008617532680730688
0.009803136452380033
0.011010818691744523
0.012221096887977458
0.013413882210129657
0.014569494037151756
0.01566965610906832
0.0166983726749638
0.01764260558834174
0.01849270611211495
0.01924259132933011
0.019889687513195933
0.020434687104009218
0.02088117957717514
0.02123522008990501
0.021504895270687375
0.021699935423200634
0.021831410395863914
0.02191153363098639
0.02195358849776371
0.021971982561724564
0.021982430418973374
0.02200226409308189
0.022050871548483897
0.022150273235048933
0.022325782202126436
0.022605744190547172
0.02300548984985528
0.02327937533058214
0.000180573040711361
0.0002944907364694256
0.0005675055599831781
0.0009507293624028703
0.0014388164500870905
0.0020306007358357895
0.0027258125272089334
0.003523914372811441
0.0044230458655992455
0.0054190483231373945
0.006504646241551391
0.007668889701400945
0.00889694707799485
0.010170308352908492
0.011467411101318544
0.012764641940913559
0.01403760891564126
0.015262536658281338
0.016417618566007982
0.017484172713470802
0.018447486388343967
0.01929728983426923
0.020027857179040827
0.02063778273795979
0.021129513951518658
0.021508737763672816
0.021783715623341873
0.021964649589594033
0.02206314247310408
0.022091794113482395
0.02206395699318773
0.021993659639792596
0.021895696272799563
0.021785875905415714
0.021681422734777207
0.021601524216157
0.021568026198178367
0.021606308410552354
0.021745659064642583
0.02200751630493256
0.022205364757451655
0.0001073309525053804
0.00020628070638159185
0.0004634732330280749
0.0008386825291615746
0.0013266222514446554
0.0019267035816252639
0.00263999964577387
0.0034676363341056304
0.004409336573489883
0.00546202546591113
0.006618635145202592
0.007867248693039968
0.009190726638197363
0.010566918852656057
0.011969496179708309
0.013369341597085804
0.014736344694430551
0.016041368297841824
0.017258126269715988
0.018364733550069755
0.01934475934000886
0.020187708758871117
0.020888955363465796
0.021449222322444964
0.021873755636792863
0.022171343983416043
0.022353326692003614
0.0224327007273421
0.022423401918639733
0.022339801330260912
0.022196430390368834
0.022007929644978823
0.0217892061887303
0.021555781190767977
0.021324311288021626
0.021113269400186478
0.02094378307977693
0.02084054859880683
0.020832668549970602
0.02094627858569986
0.02106183664032616
5.4161705186107356e-05
0.00013559786995934783
0.00036870680694035796
0.0007274359367133196
0.0012068716846223052
0.0018075839949322188
0.002532661301554861
0.0033857758685312722
0.004369144038178459
0.0054815690575348045
0.006716696115058866
0.008061700018950279
0.00949662913017979
0.010994592504807827
0.012522873566091396
0.014044902224299835
0.015522847704254338
0.016920461838094373
0.018205745549786663
0.019353057135033463
0.02034440811661934
0.021169865037293227
0.021827136830369177
0.02232054519885762
0.022659627676355477
0.022857621334631664
0.02293003001982542
0.022893417114169128
0.02276450138644565
0.022559581457028684
0.022294277250886316
0.02198355709249626
0.021642012671580974
0.021284348239722427
0.020926059942164194
0.02058429379385879
0.02027886803660111
0.020033485454325806
0.019876302572955584
0.0198371809508611
0.019864530756307976
0.0011097170908760568
0.0017086413604073748
0.0033236530617159385
0.006855748263168959
0.008310789991807406
0.011508654205413315
0.013177090125557097
0.01642617303802587
0.01791495871983801
0.0204335587351423
0.02141629130041197
0.022200998124421677
0.02278972929721675
0.02319233109822056
0.02342426582304556
0.023504432721921334
0.02144391670128589
0.020972569859168188
0.019235297105314915
0.01894155030597415
0.018703867130050816
2.5603030944599393e-05
9.36642068088885e-05
0.000301783337273032
0.0006414898318491861
0.0024442563457905517
0.00435234050597584
0.005531543544044243
0.009872847128685405
0.014832043544553955
0.019260367745797858
0.023453254956456615
0.023291186316544282
0.023037693979897047
0.02271070210404625
0.022326440460431432
0.02189962681804772
0.020499304942173325
0.020039337510112696
0.019610625611529844
0.018760813686943243
1.793915126222418e-05
6.995070729474322e-05
0.0002512321339275663
0.0005681060603518517
0.0010172194156941403
0.0016019947326448107
0.0023304874283401724
0.003212544050805669
0.004256589297775534
0.005466417042138616
0.006838146721413657
0.008357745333198443
0.009999585300023052
0.011726491153898599
0.013491539093539517
0.015241536869675868
0.016921711717858584
0.018480807050164645
0.019875669347337352
0.021074546041387258
0.022058660934675598
0.022822046681641877
0.023369959830850124
0.02371639688661698
0.02388126309897837
0.023887656970976872
0.023759585377681334
0.023520267155211803
0.02319105500662778
0.022790920172985663
0.022336402252720433
0.021841919269291948
0.021320347419354593
0.02078380653283704
0.020244618784273426
0.019716434061862752
0.019215556895551864
0.01876245893292936
0.018383615302701224
0.018111449882437906
0.018002197070166218
2.0724754051210283e-05
5.7058143771464956e-05
0.0002131250761427911
0.0005079525076791719
0.0009384708958774121
0.0015092107955862759
0.0022305696907710154
0.003115403355040898
0.00417537808047994
0.005417171814324923
0.00683878020979949
0.008426371208377503
0.010152310956035367
0.011974990247932768
0.013840866453368331
0.015688693825014925
0.01745535694302646
0.01908224810594068
0.020520946983509397
0.021737160516347057
0.02271237887839768
0.023443288414824237
0.023939446511390725
0.024219953186293337
0.02430985305287664
0.024236842363194986
0.0240286330542234
0.023711112676714493
0.023307279515478695
0.022836838748849498
0.022316310085848758
0.021759503754380245
0.021178251544808378
0.020583318775172447
0.019985460683037068
0.019396628893848505
0.01883131934318768
0.018308237669209672
0.017851512537255976
0.017498026263570915
0.01734449940656445
3.099411943886837e-05
5.143391691725199e-05
0.00018106390800515975
0.00045186743769391074
0.0008613948216104913
0.0014154106096280798
0.0021269246962291643
0.0030122717774759967
0.0040869307601924245