# vtk DataFile Version 2.0
time_10.vtk
ASCII
DATASET UNSTRUCTURED_GRID
POINTS   4141  float 
8.209035763682583e-05         1.1011463335415964e-17        0.0                           
0.25000000000000056           7.812248109990696e-05         0.0                           
0.5000758514182368            6.6786236019882605e-19        0.0                           
0.7499999999999998            7.065348201990736e-05         0.0                           
1.0000676995717968            2.8446786147459026e-17        0.0                           
1.25                          6.1030711287184734e-05        0.0                           
1.5000573023646704            3.371584015804944e-18         0.0                           
1.7499999999999996            4.904256433202036e-05         0.0                           
2.0000445122631505            8.818030635223995e-17         0.0                           
2.25                          3.467162928633714e-05         0.0                           
2.500029376927466             -6.687819936510464e-18        0.0                           
2.75                          1.8101398095228194e-05        0.0                           
3.000012164634328             -1.1530276033558649e-17       0.0                           
3.25                          -1.9515304183978954e-19       0.0                           
3.4999929784036943            9.136363313839675e-17         0.0                           
3.75                          -2.1153709772718452e-05       0.0                           
3.999971620372146             -6.171905105024748e-17        0.0                           
4.25                          -4.320111229632245e-05        0.0                           
4.4999492096516285            5.749698037019175e-17         0.0                           
4.75                          -6.630625565496009e-05        0.0                           
4.9999257715998455            -1.9491786036599107e-17       0.0                           
5.25                          -9.040316219490134e-05        0.0                           
5.499901337183999             1.8855262564600278e-16        0.0                           
5.75                          -0.00011556078371851254       0.0                           
5.9998757806527765            2.7125680797281482e-17        0.0                           
6.25                          -0.00014202181495742716       0.0                           
6.499848802196996             1.0946821222751781e-16        0.0                           
6.75                          8.1820596196557e-05           0.0                           
7.000079929567002             5.527501327371952e-06         0.0                           
7.250006021606008             7.559005616384884e-05         0.0                           
7.50007310702191              7.089035274725575e-06         0.0                           
7.750007656977836             6.744135618283692e-05         0.0                           
8.000064235835215             8.845626736716218e-06         0.0                           
8.250009459537711             5.703969736886832e-05         0.0                           
8.50005304045203              1.07091588991546e-05          0.0                           
8.750011338028617             4.42361656555622e-05          0.0                           
9.000039436792614             1.2587633655182653e-05        0.0                           
9.250013202322553             2.9074436269000665e-05        0.0                           
9.500023529994772             1.4397344920401812e-05        0.0                           
9.750014972028362             1.1769601787161588e-05        0.0                           
10.000005556330839            1.60638684664513e-05          0.0                           
1.668946656982813e-05         0.299992422742553             0.0                           
0.24998552723045447           0.30001778879007984           0.0                           
0.5000182682893314            0.29997124140446396           0.0                           
0.7499638932920816            0.30001919991128917           0.0                           
1.0000196532504981            0.29994882783449744           0.0                           
1.2499411218510807            0.300020542395882             0.0                           
1.5000209828083382            0.29992538073714864           0.0                           
1.7499173471445717            0.30002186929429564           0.0                           
2.000022321576928             0.29990094211933943           0.0                           
2.2498925593359917            0.30002326043546795           0.0                           
2.500023753495523             0.29987538801798913           0.0                           
2.7498665748984275            0.30002480229456024           0.0                           
3.0000253636164724            0.29984841758079306           0.0                           
3.249839037923926             0.30002657227215246           0.0                           
3.5000101070215104            0.3000791294490192            0.0                           
3.750077067226856             0.300012027461399             0.0                           
4.000013072157976             0.30007232810775636           0.0                           
4.250069619343894             0.30001530523009656           0.0                           
4.5000164813792916            0.30006345948815183           0.0                           
4.750059989790145             0.3000189193160785            0.0                           
5.000020167138004             0.3000522426103453            0.0                           
5.2500479611277715            0.30002268589753645           0.0                           
5.500023943617352             0.30003858972196196           0.0                           
5.750033508998358             0.30002642545649455           0.0                           
6.000027639020314             0.30002259211878507           0.0                           
6.25001677104279              0.3000299921170689            0.0                           
6.500031131360698             0.30000442191004195           0.0                           
6.749997931368736             0.30003340082947205           0.0                           
7.000034500996831             0.29998437771245917           0.0                           
7.249977329454245             0.300036528125342             0.0                           
7.5000374802139556            0.2999627685255166            0.0                           
7.749955286801063             0.30003931603556355           0.0                           
8.000040209431745             0.2999399678156005            0.0                           
8.249932141804706             0.30004197193592724           0.0                           
8.500042852288011             0.29991616864925646           0.0                           
8.74990801962007              0.30004464212862386           0.0                           
9.000045564685005             0.29989137461816284           0.0                           
9.249882862804167             0.3000474980515066            0.0                           
9.500048521651184             0.29986540382032745           0.0                           
9.74985642753341              0.30005071211285994           0.0                           
10.000051889229916            0.2998378945240753            0.0                           
7.96601359139198e-05          0.600015114261589             0.0                           
0.2500165127902328            0.6000757470822675            0.0                           
0.5000734977681495            0.6000195733537611            0.0                           
0.7500212210506284            0.6000683261411688            0.0                           
1.00006537514516              0.6000247067250922            0.0                           
1.2500265246628617            0.6000586888557813            0.0                           
1.50005493943995              0.6000302581559679            0.0                           
1.7500321526085305            0.600046611400657             0.0                           
2.0000420332442452            0.6000359463278285            0.0                           
2.250037826986244             0.6000320656377091            0.0                           
2.5000266880644033            0.6000415159796516            0.0                           
2.7500433124590877            0.6000151822944564            0.0                           
3.000009070643035             0.6000468001011059            0.0                           
3.250048494856728             0.5999962014064716            0.0                           
3.499989478607686             0.6000517635244381            0.0                           
3.750053313469155             0.5999755080136739            0.0                           
3.9999682807075643            0.6000562405073144            0.0                           
4.250057636109941             0.5999534069621785            0.0                           
4.499945783840755             0.6000603368852538            0.0                           
4.750061658288225             0.599930204596427             0.0                           
4.999922257021429             0.6000642863071617            0.0                           
5.250065611646858             0.5999060493656238            0.0                           
5.499897783320568             0.6000683344517393            0.0                           
5.7500697521500355            0.5998808933322936            0.0                           
5.9998722486729505            0.6000727497561652            0.0                           
6.250074348335386             0.5998544908771636            0.0                           
[...]
POINT_DATA  4141
SCALARS Con float 1
LOOKUP_TABLE default
0.0008211682462084421
0.0009055750026503892
0.0010725936182343636
0.0012692515416737869
0.0014930957543232936
0.001745026021298486
0.0020257626109652965
0.0023355575674735354
0.002674148501115407
0.0030407481833861923
0.0034340542810004575
0.0038522764959601536
0.004293177411130866
0.004754120607060123
0.0052321156301503215
0.005723841034363076
0.006225641761813495
0.0067334780920301806
0.007244201356956948
0.007764817458737906
0.008366237416215309
0.008974215332037176
0.009515106345082559
0.010028814668766244
0.010546798849347234
0.011067136683631334
0.01159029486048293
0.012117280594515521
0.012650039658655222
0.013191263634556251
0.013744290239055018
0.014313016754271293
0.014901827030316728
0.01551552321228059
0.01615925813141134
0.01683846517304129
0.01755877772679032
0.018325842736040564
0.01914367158135779
0.019990970450563434
0.020478476961178778
0.0008373067615235877
0.0009238472458448363
0.0010943985584887818
0.0012949034145290884
0.0015229165834889104
0.0017792690319019568
0.002064610399058931
0.002379117277384534
0.0027224509101091217
0.003093750534493538
0.0034916478153687665
0.003914300517106115
0.004359443921418201
0.004824458882442974
0.005306458285555338
0.0058024117151766344
0.0063093571532254495
0.006825152371805752
0.007349732338857847
0.007899774762085018
0.008461782214559831
0.009016674854303929
0.009557192486810497
0.010091761291570979
0.010617808055983476
0.011142297290644552
0.011667416412503878
0.012195408746234452
0.012728796080073759
0.013270613171692433
0.013824423704356594
0.014394294879728431
0.0149847508968024
0.015600717447818381
0.016247460241192016
0.01693051765525373
0.017655620763891496
0.018428508240917105
0.019253240156570407
0.020108828692266472
0.020601678648522363
0.0008290322524358137
0.000915433027264069
0.0010861777234836944
0.001287356540647525
0.0015164772551941872
0.0017743573824162322
0.0020616227179408686
0.0023784230564707167
0.0027243923887880117
0.003098646258436091
0.0034998023571337004
0.003926024840750129
0.004375095187191266
0.00484451681738907
0.005331673145769411
0.005834079406044301
0.0063498725941495155
0.006878380774656417
0.007422734168823699
0.00796614757027409
0.008484876325360229
0.009006888786916353
0.009552964690421403
0.010095533385709381
0.010630571829691533
0.01115965100805603
0.011686403646587873
0.012213866867774054
0.012745167987690405
0.013283719888944287
0.013833343752714004
0.014398300187949499
0.014983278390928672
0.015593361364864923
0.01623397696844867
0.016910838267296644
0.01762986791898995
0.01839701044572267
0.0192165514771149
0.02006749177151052
0.020557705462796314
0.0008145940849547062
0.0009009710456743847
0.0010720936388138537
0.0012743690563296092
0.001505310990231054
0.0017657048362739805
0.002056135464118724
0.002376704744926127
0.0027269955790817303
0.003106073185906315
0.0035125108634574513
0.003944441384807378
0.004399637098526977
0.004875623715310449
0.005369832021647368
0.005879789092508407
0.006403211900543063
0.006937950099306056
0.007477000981052345
0.0080110050942559
0.008539590767080251
0.009066707360502978
0.009597603461681203
0.010133997878785729
0.010667522035417019
0.01119629806305545
0.011721547349686353
0.01224587935173032
0.012772416420646377
0.013304726574136769
0.013846819277608374
0.014403152898427503
0.01497862316018795
0.015578534759910006
0.016208559117472997
0.016874679928872455
0.017583119975647342
0.018340152166411324
0.019150407711174905
0.019993409772544747
0.020479754533085027
0.0007942095229458978
0.0008805503831120717
0.001052240587718311
0.0012560919957754278
0.0014896192174224045
0.001753563063336934
0.0020484470379223824
0.0023743006076114067
0.002730625953216259
0.0031164013408841707
0.003530107941018273
0.003969780094102327
0.004433078515847494
0.004917381622365585
0.005419879287543722
0.005937608578181915
0.006467343541547666
0.007004679780377201
0.0075443480993890545
0.008081970678540624
0.008615326468764539
0.009146054568396098
0.009676404266765228
0.010205987632914382
0.010733622797431725
0.01125729903179799
0.011777162073611154
0.012294940999343505
0.012813411352288891
0.013336063430084052
0.01386698077214029
0.014410780731561795
0.014972575710434914
0.015557934933301905
0.016172840355187196
0.016823633060494763
0.017516940930373308
0.018259490517467763
0.01905643110877786
0.01988811063592395
0.020368980587940816
0.0007677267372694159
0.0008540488646387529
0.0010265175260070472
0.0012324488193894783
0.001469351901569117
0.0017379055303188213
0.0020385502842836453
0.0023712169025165955
0.002735294600999721
0.0031296340119253163
0.0035525710829043757
0.004001970377473759
0.004475283984897331
0.0049696162666891955
0.005481771462379921
0.006008251470176073
0.006545117616326797
0.007088044994972245
0.007632683419076433
0.008175402741357744
0.008714261612114048
0.009248770192638691
0.00977913222397819
0.010305404812653317
0.010826915969502532
0.011343258348622497
0.011854673921106812
0.012362599410338222
0.012869538169200443
0.013378872915964412
0.013894719361556061
0.014421836269149375
0.014965563417574197
0.015531771253733095
0.016126812024541887
0.016757465756374535
0.01743087014594458
0.018154338170455052
0.01893371457371527
0.019750403157084026
0.02022393609114372
0.0007350152072872865
0.0008213454052317942
0.000994829141834529
0.0012033723195730315
0.0014444699399528858
0.0017187201822857687
0.0020264587382606103
0.002367491918198515
0.0027410649864301868
0.0031458625943804673
0.0035800275895215756
0.0040411962111476735
0.004526545702086331
0.005032846105860512
0.0055565054053149645
0.006093596111601061
0.006639921386004934
0.00719117273616713
0.007743265433242801
0.008292800285190716
0.008837354146260025
0.009375521333033697
0.009906580214682286
0.010430083360219474
0.010945778674687443
0.011453682958645035
0.011954467871350363
0.01244965254305562
0.012941709981691613
0.01343401470366954
0.013930756899140912
0.014436862417908715
0.01495792837859907
0.015500169238202315
0.016070367059841204
0.016675819721044566
0.017324275812001758
0.01802376148844474
0.01878096400060618
0.01957857694220068
0.020042702220787818
0.0006959917007702559
0.0007823640191982374
0.0009571169090618727
0.0011688265698302672
0.0014149614672899075
0.0016960199043934865
0.0020122121266081955
0.002363197415856614
0.0027480507653748166
0.0031652591402085853
0.0036127343965672997
0.004087841957946786
0.004587443441041698
0.00510795036296241
0.005645387206062027
0.006195475871873748
0.006753760715311558
0.007315805890142151
0.007877460991241729
0.008435133490024052
0.008985989825298087
0.009527989276603392
0.010059785182926197
0.010580590494347359
0.011090094869402184
0.011588533968091758
0.012076806365481741
0.012556620891344336
0.013030567502642977
0.013502130297544086
0.013975651187859066
0.014456278059809289
0.014949912899654631
0.015463164659944571
0.016003305457922966
0.016578225939866853
0.017196379140747304
0.01786661840902518
0.018596615913630765
0.019370624522666628
0.019823014294343723
0.0006506689062416661
0.0007371145647109341
0.0009133920695936641
0.0011288298333182669
0.0013808545265014181
0.001669845330127595
0.0019958695972183637
0.002358422419953346
0.002756389373821771
0.0031880366007961346
0.003651016999740537
0.004142393667405722
0.004658681818497207
0.005195910371811624
0.0057497069546830724
0.006315412916101448
0.006888238243005554
0.007463457876348474
0.008036634113411047
0.00860382993206975
0.009161765187306931
0.009707891917238741
0.010240394374436593
0.010758154491330418
0.011260737601490056
0.011748414335648374
0.01222222611056808
0.012684052312303898
0.013136661975252196
0.013583729554542458
0.014029822931694722
0.014480373911165028
0.01494164336697877
0.015420687277033924
0.01592532502828638
0.016464107593679132
0.017046275427667436
0.017681613306036674
0.018378917907701724
0.019124286544607405
0.019562311232636152
0.0005992111441416541
0.0006857421379191435
0.000863772310566689
0.0010834779668595393
0.0013422267262203085
0.0016402607682675383
0.0019774922659575116
0.0023532428002964005
0.0027661986049340925
0.0032143912286764094
0.0036951947694029825
0.004205343360621211
0.004740972860352221
0.005297690431474944
0.005870675513159226
0.006454815358046013
0.007044875040367317
0.00763569523319575
0.008222400995961263
0.008800596423505669
0.009366520730082659
0.00991715096456367
0.010450254980992056
0.010964413495260728
0.01145903280665903
0.011934366282124449
0.012391544447881968
0.012832608332552313
0.013260532969836019
0.013679235935798804
0.014093570162534489
0.014509307186989869
0.014933117004957051
0.015372549681368957
0.01583602029228875
0.016332795462324978
0.016872971833385205
0.017467355900103655
0.018125997615343992
0.01883713578450361
0.019257826385498944
0.0005419990191535497
0.0006285829803925247
0.0008085215849932588
0.0010329669270000678
0.0012992100710348831
0.0016073415420734248
0.001957113924238303
0.0023476767242906916
0.002777518534485866
0.003244432939079523
0.0037455023553094424
0.00427710633898164
0.004834960784774397
0.005414193021429775
0.006009455682914581
0.0066150790962230584
0.0072252573409713056
0.00783425716892716
0.008436633183719367
0.009027429581706508
0.009602350606713751
0.010157889224216128
0.010691413495371475
0.011201218650660096
0.011686557274265446
0.012147657647275342
0.012585736708011027
0.013003007750349358
0.013402682268250003
0.013788964695255384
0.014167042054775756
0.014543072148239225
0.014924174828977009
0.015318429593715927
0.015734880627555417
0.01618354736026687
0.016675430858745885
0.017222428361703814
0.017835953078511747
0.018506687400263896
0.018906708621403583
0.00047970151632184045
0.0005662256026175345
0.0007480910140572881
0.0009776121842938962
0.0012519886092403538
0.0015711504881268322
0.0019346979616747244
0.0023416246248523687
0.0027902382069768714
0.003278103543560527
0.003802005845465874
0.004357944128308073
0.004941163921667359
0.005546235631546121
0.00616718094025479
0.006797644696009341
0.007431104075410372
0.008061101335039598
0.008681482356178796
0.009286621974032778
0.009871619510807826
0.010432453680687476
0.010966093328914068
0.011470567342989714
0.011945001103471686
0.012389628494921938
0.012805787314403507
0.013195904233082204
0.013563474129156289
0.013913037988725169
0.014250163745048977
0.014581434692102602
0.014914449382308308
0.015257835684564638
0.015621279369234622
0.01601556474026114
0.016452617344776155
0.01694546431776092
0.017506963748298392
0.018130540266813943
0.018506179545406877
0.0004133519062912998
0.0004995736162269466
0.0006831575181673219
0.0009178618088740404
0.0012007859076032983
0.0015317008122626632
0.0019100779333232037
0.0023347912583468345
0.0028040045405471692
0.0033150795351185587
0.003864508124192145
0.004447882506726041
0.005059916102064229
0.005694523527077749
0.006344962090440122
0.0070040302941491335
0.007664311870219101
0.00831844790889639
0.008959415881098368
0.009580793877128364
0.010176991131114461
0.010743431733044565
0.011276685412533051
0.011774546331307058
0.012236066150692082
0.012661550955470939
0.013052532926725058
0.013411727305891713
0.013742984573001207
0.014051246342349506
0.014342512603868408
0.014623826437717988
0.014903280910658038
0.015190050712268298
0.015494448540106702
0.01582800299689018
0.016203547445557055
0.016635238710480737
0.017137422559713324
0.017706549801506218
0.018053728114074793
0.00034442102553051355
0.00042990412190478634
0.0006146549974394341
0.0008542990330826265
0.0011458390457435854
0.0014889028025122332
0.0018828796107513764
0.0023265875467497234
0.002818110610302574
0.0033546556453624412
0.0039324382674930936
0.004546617979844931
0.00519130032894085
0.00585961747899435
0.006543890202086292
0.007235864720310164
0.007927008623647534
0.008608842642037819
0.009273280788723968
0.009912951055465876
0.010521472657896273
0.011093672692548222
0.011625733763109417
0.012115272773508197
0.012561358446927658
0.012964480182500144
0.013326483612704356
0.013650488774377004
0.013940805870829773
0.014202861765241865
0.014443147860053056
0.014669197719748478
0.014889599966471902
0.015114049512574725
0.015353437175382428
0.015619974003506305
0.01592733811034153
0.01629076699929016
0.016726087144398005
0.017233031395699046
0.017547343060899813
0.0002748762810595555
0.00035891172022249157
0.0005437905763991958
0.0007876293674828501
0.001087356810057546
0.0014424936799010103
0.0018524244079321935
0.002316011862028098
0.0028313622657849895
0.0033956074861841087
0.0040047229792396525
0.004653411293868189
0.005335076126999865
0.006041902872803699
0.006765049803396165
0.00749494074359704
0.008221637262938996
0.008935258116390853
0.009626407974154693
0.01028657745949618
0.010908481928977054
0.011486316223962359
0.012015914664425727
0.012494817629039524
0.012922256216553721
0.013299073715449077
0.013627606161129367
0.013911545062374377
0.014155803327224761
0.014366402418390599
0.014550394550540595
0.014715830091648787
0.014871776412803768
0.015028391592993146
0.015197053514274807
0.015390541426254784
0.015623257939041412
0.01591141202275421
0.01627224723089599
0.01670899097164182
0.01698577938559099
0.00020720914378010927
0.0002887233309754349
0.0004720360821570973
0.0007186486393352365
0.001025462951817048
0.001391954372357774
0.0018176183473592512
0.002301513842657179
0.002841925446757869
0.003436035225194079
0.004079642243685035
0.0047669715815721065
0.005490607203114355
0.006241571654029018
0.00700955909325991
0.007783309420339888
0.008551092114629996
0.009301253573941154
0.010022773279607296
0.01070577447400809
0.011341943763819537
0.011924829017666953
0.0124500031531304
0.01291509896698873
0.013319734714947537
0.013665359494967265
0.013955051686268262
0.01419330311146021
0.014385817696017591
0.014539347688137163
0.014661584110034482
0.01476111230437033
0.014847438616878839
0.014931090819913497
0.01502379284247051
0.01513871351028276
0.015290782289701094
0.015497002717042534
0.015775902256495628
0.016134374500247604
0.016368855230657665
0.00014440336294178842
0.000221862760416841
0.0004010853745071182
0.0006481913144724954
0.0009601342249943798
0.0013364244351121166
0.001776834591398251
0.002280848880790605
0.002847162712083039
0.0034731965705411465
0.004154677257365706
0.004885340110267821
0.005656801120676296
0.006458633169364794
0.007278658479859183
0.008103441219926174
0.008918935398515465
0.009711219544729375
0.010467236930523403
0.011175461132204306
0.011826421377531328
0.012413046553367278
0.01293081536126835
0.0133777268263875
0.013754125845350604
0.01406243021681578
0.014306808850426397
0.014492857271112249
0.01462730822001257
0.014717805472849498
0.014772758777035322
0.014801289779414651
0.0148132723928561
0.014819467429583892
0.01483175014594233
0.014863430369603404
0.01492967087985202
0.015047964375059533
0.015237960218307076
0.015510321317142745
0.015697741741103274
8.982069797077326e-05
0.00016114089501399027
0.0003327641849698006
0.0005770838161669045
0.0008911562027967034
0.0012746208898532486
0.0017278012766783301
0.0022509413322940866
0.002843478615784186
0.0035033473767059845
0.004226366668952274
0.005005788640940419
0.005832077645947219
0.006692975226563773
0.007573874831647603
0.008458486951722553
0.00932972974076482
0.010170741223880836
0.010965888368534994
0.01170165121851528
0.012367285514153564
0.012955209323987742
0.013461105228446851
0.013883771305449821
0.014224782422266966
0.01448803688663974
0.014679262634933733
0.0148055467704924
0.01487493634952043
0.014896141560397732
0.01487835759154157
0.014831210229616205
0.014764822935706474
0.01468999962556058
0.014618516698370543
0.014563521191776393
0.014540033633541538
0.014565573308330717
0.01466042021977017
0.0148394266996392
0.014975331550345028
4.9834879075933755e-05
0.00010944224994111166
0.00026897952244930054
0.0005061396923030923
0.0008180538556203231
0.0012047614998011394
0.0016675268227940546
0.002207798599920718
0.0028262160338799144
0.0035216256288904887
0.004290199825566331
0.0051247564229432415
0.00601438966337374
0.006944503799661189
0.0078972978336018
0.008852682365886615
0.009789533704888479
0.010687123567965856
0.011526527367946758
0.01229181959018337
0.012970912270176481
0.013555964857000034
0.014043372655337174
0.01443340441694586
0.014729599149356712
0.014938042543413296
0.01506663327655651
0.01512442444544415
0.015121096607096072
0.015066591674217849
0.014970915825656678
0.014844105712428779
0.014696345504382648
0.0145382202472474
0.01438109357623827
0.014237599624346313
0.014122247759552335
0.01405208258541242
0.014047266116528692
0.014125896891999772
0.014206050197347454
2.2523635108662995e-05
6.963106901472984e-05
0.00021164731217936602
0.00043599738158879743
0.000740101668660023
0.0011247423495152154
0.0015925628621611973
0.002146806957585253
0.0027899489911624095
0.003522332581569032
0.004340902047813484
0.005238177064554844
0.006201638870779362
0.0072136869225759076
0.008252263800650752
0.009292141360604723
0.010306728085840359
0.011270140749812007
0.012159216299720107
0.012955155524802376
0.01364457718941951
0.014219896215636282
0.014679071936169035
0.015024873661862469
0.015263856857599263
0.015405244279824993
0.015459869581812264
0.015439291942788225
0.015355138389348261
0.01521869014640082
0.015040701160221378
0.014831423127864651
0.014600807577617315
0.01435885972555984
0.014116126670669242
0.013884312254051527
0.013677010015574852
0.013510571620294107
0.013404538104362498
0.013379626659592152
0.013399946316282614
0.000676176126761953
0.0010571204617800967
0.0020974548959671055
0.004416115442870498
0.00538492917187251
0.00753757860934066
0.00867211468316155
0.010901104293607876
0.011930243131623636
0.013681283654727752
0.014367981326741323
0.014918086249461811
0.015332513507199497
0.015617881796284155
0.015784911289837642
0.015846815572471095
0.014471152018323302
0.014152394259736259
0.012974682850732897
0.012775870829077192
0.012617965236184147
9.19691346716665e-06
4.743897296153208e-05
0.00017148543695752992
0.00038157659226166116
0.0015290049595455485
0.0027673424573429516
0.003540932306718966
0.006432629770933964
0.009804412667227548
0.012864095400404332
0.015817893799998484
0.015712439240438903
0.015544003474467724
0.015325000376286493
0.015066604619669341
0.014778889200610365
0.013831930438454106
0.013520127390102072
0.013229290579752761
0.01265481117648013
8.532532638596376e-06
3.6231519173090816e-05
0.00014184316166604243
0.0003359428266460349
0.0006167639372544713
0.0009868883924501167
0.0014522602583871766
0.0020203670223740574
0.0026981305272677815
0.003489725020272511
0.004394410793908879
0.005404641128728092
0.006504781229975172
0.007670804738538346
0.008871236884727504
0.010069387937887002
0.011226613322709357
0.012306047334276144
0.013276107990881645
0.014113128547199903
0.01480271875404556
0.015339788514320316
0.015727459716357386
0.015975263370362855
0.01609705506320117
0.01610901213481076
0.016027956142132135
0.015870118036618548
0.015650363302331965
0.015381829881845012
0.015075901998858898
0.014742440134722836
0.01439019997623031
0.014027394222407636
0.013662374810869685
0.013304432392487318
0.012964738875773539
0.01265742803966035
0.01240090452852755
0.012217845419716046
0.012145515604508977
1.4061758105913142e-05
3.120305433533551e-05
0.00011969864416955684
0.00029852541505534475
0.0005660607719552881
0.0009255548813130077
0.0013844654511307247
0.001952300233758536
0.0026382416081808264
0.0034485920609340723
0.00438417095354107
0.005437940385310257
0.006593297099125869
0.007823526483965048
0.009092817667411155
0.010358950807110743
0.011577343702022277
0.012705729558237304
0.013708515162297548
0.014559952818919369
0.015245618399992404
0.015762158729855116
0.016115668115353667
0.016319261400167005
0.016390421060096954
0.016348569369211464
0.016213136468050934
0.01600222521367007
0.015731850181388292
0.015415659012889684
0.015065020905315005
0.014689375019719737
0.014296756032861416
0.01389444408807524
0.013489714655834543
0.013090693960659195
0.012707318038859642
0.012352517817376871
0.012043121025824194
0.011804803734011158
0.011702257633046314
2.3947996846954662e-05