# vtk DataFile Version 2.0
time_10.vtk
ASCII
DATASET UNSTRUCTURED_GRID
POINTS   4141  float 
3.879396587150812e-06         1.3625717901798873e-16        0.0                           
0.2500000000000009            3.6644925052041676e-06        0.0                           
0.5000035457030729            4.3531774582018194e-17        0.0                           
0.7500000000000027            3.281753848124199e-06         0.0                           
1.0000031353656642            -1.0025201650354646e-17       0.0                           
1.2499999999999993            2.811430641606661e-06         0.0                           
1.500002633269917             2.7719146730452266e-18        0.0                           
1.75                          2.243848398375632e-06         0.0                           
2.000002032627671             -3.1432112323285527e-15       0.0                           
2.25                          1.5780545059869266e-06        0.0                           
2.5000013353685304            -6.444097719442173e-18        0.0                           
2.75                          8.217755014855219e-07         0.0                           
3.000000552557695             5.4741670217413737e-17        0.0                           
3.2500000000000004            -8.592091091546558e-17        0.0                           
3.4999996913834304            -2.840262767889367e-17        0.0                           
3.75                          -9.319150584218082e-07        0.0                           
3.9999987499311174            -1.0963421088733537e-16       0.0                           
4.25                          -1.900304005446621e-06        0.0                           
4.49999776805558              1.8196092313381575e-15        0.0                           
4.75                          -2.907193479114579e-06        0.0                           
4.99999674945613              2.4562830259717146e-16        0.0                           
5.25                          -3.9486708699220005e-06       0.0                           
5.499995696281572             7.386364975041188e-17         0.0                           
5.75                          -5.027207338560022e-06        0.0                           
5.999994603479742             2.2400435944905064e-15        0.0                           
6.25                          -6.153182410780176e-06        0.0                           
6.499993458045922             2.2236159569787797e-16        0.0                           
6.75                          3.8690411031099875e-06        0.0                           
7.000003765240729             2.9962464887225664e-07        0.0                           
7.25000031889551              3.535726850258952e-06         0.0                           
7.500003408449079             3.610278284241016e-07         0.0                           
7.75000038364913              3.1255373632433857e-06        0.0                           
8.00000296886192              4.3129648761680904e-07        0.0                           
8.250000456015275             2.623258178804115e-06         0.0                           
8.500002433932472             5.064545737605598e-07         0.0                           
8.750000531864185             2.0220570902911524e-06        0.0                           
9.000001799752276             5.823264891600718e-07         0.0                           
9.250000607107543             1.3237551931702904e-06        0.0                           
9.500001070869418             6.551508348794537e-07         0.0                           
9.750000678178314             5.377560166937401e-07         0.0                           
10.000000257920586            7.217378403692233e-07         0.0                           
7.457355277712374e-07         0.2999996712021095            0.0                           
0.24999936545451754           0.30000078815183484           0.0                           
0.5000008068063764            0.2999987351938963            0.0                           
0.749998412327012             0.3000008426518312            0.0                           
1.0000008599163044            0.2999977530662261            0.0                           
1.2499974172370376            0.30000089349744175           0.0                           
1.5000009100264506            0.29999673407876315           0.0                           
1.7499963868624153            0.3000009431954883            0.0                           
2.0000009601168998            0.29999568073426475           0.0                           
2.2499953213550974            0.3000009953736195            0.0                           
2.500001014008452             0.29999458803529355           0.0                           
2.7499942130242045            0.3000010540148701            0.0                           
3.000001075653207             0.2999934429378503            0.0                           
3.2499930462788793            0.30000112277045315           0.0                           
3.500000562527595             0.30000373458731305           0.0                           
3.7500036241436594            0.30000063707446983           0.0                           
4.0000006781714905            0.3000033787580833            0.0                           
4.250003242372138             0.30000076688803945           0.0                           
4.500000813958907             0.3000029393114815            0.0                           
4.7500027717904265            0.3000009120087096            0.0                           
5.000000962353798             0.30000240348012125           0.0                           
5.25000220250778              0.3000010641098822            0.0                           
5.500001114918616             0.30000176726016287           0.0                           
5.750001533403863             0.3000012150188721            0.0                           
6.000001263829673             0.30000103483040563           0.0                           
6.250000770856077             0.30000135805848455           0.0                           
6.500001403371151             0.30000021487141454           0.0                           
6.749999924408857             0.30000149234376              0.0                           
7.000001535020268             0.2999993212453218            0.0                           
7.249999009371029             0.3000016135165546            0.0                           
7.5000016501776505            0.2999983683243998            0.0                           
7.749998040414692             0.30000172023484684           0.0                           
8.000001754034816             0.299997371878921             0.0                           
8.249997031773468             0.3000018202731366            0.0                           
8.500001853214629             0.2999963404909903            0.0                           
8.749995989263585             0.3000019201336341            0.0                           
9.000001954703293             0.2999952747419566            0.0                           
9.249994910775952             0.30000202757448236           0.0                           
9.50000206647087              0.29999416698008863           0.0                           
9.749993785875224             0.3000021505780254            0.0                           
10.000002196281267            0.2999930014153327            0.0                           
3.7860950089201363e-06        0.6000008417086734            0.0                           
0.2500008957244554            0.6000035736630835            0.0                           
0.5000034558599071            0.6000010156741785            0.0                           
0.7500010809718917            0.6000031931229204            0.0                           
1.0000030468888337            0.6000012202180146            0.0                           
1.2500012932621678            0.6000027222438542            0.0                           
1.5000025431940278            0.6000014438062847            0.0                           
1.7500015203444976            0.6000021508951252            0.0                           
2.000001937675882             0.6000016736402637            0.0                           
2.250001749544368             0.6000014779070004            0.0                           
2.5000012319250646            0.6000018980164405            0.0                           
2.750001970012476             0.6000007095836487            0.0                           
3.0000004340584963            0.6000021088491998            0.0                           
3.250002175702214             0.5999998574307772            0.0                           
3.4999995577890037            0.6000023034413812            0.0                           
3.750002363564029             0.5999989383637727            0.0                           
3.9999986195736295            0.6000024763361195            0.0                           
4.250002529672897             0.59999796665002              0.0                           
4.499997633507106             0.6000026320321505            0.0                           
4.7500026817454435            0.5999969555831626            0.0                           
4.99999661119053              0.6000027801351921            0.0                           
5.250002829644757             0.5999959117443237            0.0                           
5.499995556452186             0.6000029315155927            0.0                           
5.750002984795826             0.5999948333168338            0.0                           
5.9999944645826035            0.600003098330889             0.0                           
6.250003159460057             0.5999937097715828            0.0                           
[...]
POINT_DATA  4141
SCALARS Con float 1
LOOKUP_TABLE default
2.5166237786548897e-06
2.691020390267124e-06
3.035892743997788e-06
3.4374022893523763e-06
3.889301179524695e-06
4.392587373409681e-06
4.947995485346002e-06
5.5553995316817144e-06
6.2137264616948885e-06
6.920941579425052e-06
7.674072439129214e-06
8.46926668954561e-06
9.301878732413658e-06
1.0166576798065857e-05
1.1057449840668387e-05
1.1968088799715383e-05
1.2891626342894848e-05
1.3820681539014167e-05
1.4749113237480689e-05
1.5685069568455766e-05
1.6730290602477907e-05
1.7777096831158986e-05
1.8719765154638225e-05
1.9615494675835502e-05
2.0509469656666842e-05
2.1399068655150795e-05
2.2285624441800403e-05
2.3171595910495847e-05
2.4061098977544784e-05
2.4959600068588558e-05
2.5873760476634953e-05
2.68113023514336e-05
2.7780886313951734e-05
2.8792010549629097e-05
2.9854901875849856e-05
3.0980406945757214e-05
3.217985887142802e-05
3.346472484105783e-05
3.484344483098345e-05
3.627872349655351e-05
3.710506753623722e-05
2.5530198248347525e-06
2.7313757267454263e-06
3.083092579584983e-06
3.4919484587731956e-06
3.951711061537608e-06
4.463237360165076e-06
5.027122536815652e-06
5.643093593196181e-06
6.309930349855109e-06
7.02545691072132e-06
7.78657277177834e-06
8.589321705650372e-06
9.428994375794789e-06
1.0300263270133722e-05
1.1197350156281255e-05
1.211424973717839e-05
1.304507548101727e-05
1.3985168411110443e-05
1.4932891829331328e-05
1.5911188785532302e-05
1.6898896914690948e-05
1.786879339155814e-05
1.880976642484284e-05
1.9734088022992037e-05
2.0638084092468104e-05
2.1532181637088318e-05
2.242020548088946e-05
2.3306406121601016e-05
2.4195741527008997e-05
2.5094196595337825e-05
2.6008781488258518e-05
2.6947486067034825e-05
2.791919717447286e-05
2.893361270541242e-05
3.0001143267454205e-05
3.113280655684607e-05
3.234009527935162e-05
3.36346269310435e-05
3.502493459018302e-05
3.647434226493186e-05
3.730977811075575e-05
2.532443179679795e-06
2.710772442591577e-06
3.0633044015576663e-06
3.473999912116985e-06
3.936481023332896e-06
4.451548730185852e-06
5.019722318883972e-06
5.640648240688538e-06
6.313024560264988e-06
7.034598249404338e-06
7.802205949907079e-06
8.61185768531545e-06
9.458868620124108e-06
1.0338044597896587e-05
1.1243952281704259e-05
1.217132356977556e-05
1.3115806651996107e-05
1.407483178680855e-05
1.5051592751844704e-05
1.6020570331970933e-05
1.694690320851218e-05
1.7870040245821263e-05
1.8819044206922032e-05
1.9754017669652343e-05
2.0669725711141007e-05
2.1568996575821897e-05
2.245781698832799e-05
2.33415875848093e-05
2.422613835918078e-05
2.5117995986287632e-05
2.602454754736616e-05
2.6954065025994497e-05
2.791568353888645e-05
2.8919335400755392e-05
2.997567739247213e-05
3.109599573718318e-05
3.2292081976644496e-05
3.357588700999116e-05
3.49563597555407e-05
3.63970201687896e-05
3.722773927708904e-05
2.496811064693143e-06
2.675479421566172e-06
3.02953575485969e-06
3.443285908171017e-06
3.9102990179498846e-06
4.431261688331632e-06
5.006566952258484e-06
5.635722110569658e-06
6.3172803420886874e-06
7.048843932697955e-06
7.827113140463356e-06
8.647981172462236e-06
9.50667854586978e-06
1.039797341128672e-05
1.1316433056717786e-05
1.2256746804742454e-05
1.3213916797738399e-05
1.4183277249414566e-05
1.5153310643342483e-05
1.6109473464411206e-05
1.705043554588074e-05
1.7980881631180106e-05
1.890754261656916e-05
1.9832812424514567e-05
2.0744915521178623e-05
2.164182325887275e-05
2.252617963881593e-05
2.340285566442205e-05
2.4277723210704337e-05
2.5157564824880975e-05
2.6050062601835475e-05
2.6963797085506454e-05
2.7908220529994447e-05
2.8893610623373496e-05
2.993100305578909e-05
3.103211130140263e-05
3.220921275386596e-05
3.347481425116931e-05
3.483849157344628e-05
3.626479973780517e-05
3.708852846118145e-05
2.4464164514412763e-06
2.625582465594395e-06
2.9818840573913303e-06
3.4000306445501782e-06
3.873497865936506e-06
4.402815683592893e-06
4.988192851243766e-06
5.628933817065151e-06
6.3233745487038716e-06
7.068890660659921e-06
7.861947223285754e-06
8.698194469877537e-06
9.572603223050547e-06
1.047963541415e-05
1.14134269402927e-05
1.236789370438855e-05
1.33366453009285e-05
1.4311724370932546e-05
1.5284141296648923e-05
1.6246401443230342e-05
1.719427436881301e-05
1.812935452811091e-05
1.9054346417240973e-05
1.996842042825406e-05
2.087011063767419e-05
2.1757138561523863e-05
2.2630660980788242e-05
2.3494374390896857e-05
2.4353729954813448e-05
2.5215459004227366e-05
2.608739887779029e-05
2.6978397071395246e-05
2.789825519367148e-05
2.8857667278702615e-05
2.9868158727525246e-05
3.094201276953259e-05
3.209216613187124e-05
3.3331887608604214e-05
3.4671656245180404e-05
3.60774384450758e-05
3.68910465321038e-05
2.3807879000684994e-06
2.560681094862678e-06
2.9200293298824885e-06
3.3440004756646903e-06
3.825936189671026e-06
4.366156504316903e-06
4.964626247166233e-06
5.620380138497473e-06
6.331460985130099e-06
7.094928573882162e-06
7.906906923560289e-06
8.762670812734774e-06
9.65676472559653e-06
1.0583137598070535e-05
1.1535265137610338e-05
1.2506208036364392e-05
1.3488477016274957e-05
1.4474173054327068e-05
1.5455540684706568e-05
1.6426065959834127e-05
1.738193783004809e-05
1.8321714900943243e-05
1.924524440503008e-05
2.01524726536897e-05
2.1042634014481716e-05
2.1915751405242958e-05
2.277314267833537e-05
2.361814653720181e-05
2.4455905148514726e-05
2.529307017794991e-05
2.6137589468982704e-05
2.699856863687643e-05
2.7886184475506858e-05
2.881161099259347e-05
2.978695922324983e-05
3.082520927129732e-05
3.1940117958167264e-05
3.3145912426496915e-05
3.4454218933491256e-05
3.5832850219957106e-05
3.663301627047896e-05
2.299438997198982e-06
2.4803336082303978e-06
2.843627581653682e-06
3.2749570780984468e-06
3.7674819340382476e-06
4.321257068885588e-06
4.935942996517959e-06
5.610237782671835e-06
6.34181758045153e-06
7.127339985381156e-06
7.962488686192955e-06
8.84204876551934e-06
9.76001207974263e-06
1.0709701441271786e-05
1.1683888630695483e-05
1.2674899087695925e-05
1.3674766791428047e-05
1.4675517115933993e-05
1.5669693457962486e-05
1.665107686745836e-05
1.761514593721694e-05
1.8559171947515094e-05
1.9481739905251165e-05
2.0382153242823e-05
2.126034472031266e-05
2.2116992149216956e-05
2.2954078963135317e-05
2.377512620956989e-05
2.4585310502673363e-05
2.5391354127177223e-05
2.6201384972154976e-05
2.7024813548922647e-05
2.7872242435322014e-05
2.8755393543827028e-05
2.968705260992671e-05
3.068100970678196e-05
3.1751990424310594e-05
3.2915363762494294e-05
3.418414434951362e-05
3.55284359973248e-05
3.6311496027059974e-05
2.2019207077209312e-06
2.384138261457891e-06
2.752371988295914e-06
3.1926999420457067e-06
3.6980455693320653e-06
4.268139750506936e-06
4.902280238101534e-06
5.598767955457373e-06
6.354842509403964e-06
7.166684839190136e-06
8.029450227131193e-06
8.937340698988455e-06
9.883704843892614e-06
1.0861167603140815e-05
1.1861781529319439e-05
1.2877213858001441e-05
1.3898989803082995e-05
1.4918837910317658e-05
1.592912879434321e-05
1.69233218608136e-05
1.7896302448743987e-05
1.884445768550815e-05
1.976553670781463e-05
2.0658456594646523e-05
2.1523176246830322e-05
2.2360797844527498e-05
2.3173721259392743e-05
2.3965833200261784e-05
2.474256610293896e-05
2.5510889126740347e-05
2.6279227866984376e-05
2.7057382466515712e-05
2.7856451557844125e-05
2.8688776123585404e-05
2.9567899601952024e-05
3.0508527866281986e-05
3.152648334895099e-05
3.2638448041109694e-05
3.385904742489836e-05
3.516113973987605e-05
3.592302751575075e-05
2.0879179017795477e-06
2.271814871822324e-06
2.6460593218654916e-06
3.097115880679632e-06
3.617608010983109e-06
4.206885052881454e-06
4.8638290626099125e-06
5.586288883174331e-06
6.371012489791306e-06
7.213637273965153e-06
8.108717479575661e-06
9.04978846043978e-06
1.0029472999483168e-05
1.1039623933269129e-05
1.207151492614827e-05
1.3116074433955372e-05
1.4164183175731597e-05
1.5207023455635882e-05
1.623646574503181e-05
1.724543294745708e-05
1.8228169571567805e-05
1.9180376687136208e-05
2.009921245886131e-05
2.098323718904452e-05
2.1832373396345555e-05
2.26479197101447e-05
2.3432622582553828e-05
2.4190738357843562e-05
2.492807337504774e-05
2.5651971664342386e-05
2.6371272293535395e-05
2.7096253489197026e-05
2.7838586882177716e-05
2.861130109654914e-05
2.9428768916239375e-05
3.0306697415800956e-05
3.126211493231799e-05
3.231315934944998e-05
3.347627730710906e-05
3.4727555040801834e-05
3.5463740120939696e-05
1.957362020251814e-06
2.143307216479605e-06
2.5246677494536365e-06
2.9882296775611212e-06
3.526246701699169e-06
4.1376322859828895e-06
4.82080687216878e-06
5.573128478761497e-06
6.390809398330456e-06
7.268891813568187e-06
8.201263169304023e-06
9.180713415557048e-06
1.0199045737681964e-05
1.1247237888105403e-05
1.2315663820337345e-05
1.3394368947168987e-05
1.4473396092963752e-05
1.554315321541042e-05
1.659478406063923e-05
1.7620510778452416e-05
1.861390176571112e-05
1.9570041102406195e-05
2.0485604072075667e-05
2.135887082423382e-05
2.2189716071197994e-05
2.297960285006711e-05
2.373159059617379e-05
2.4450333750713218e-05
2.5142082232392015e-05
2.5814650007054584e-05
2.6477381454570443e-05
2.714111416359629e-05
2.7818155155669065e-05
2.8522276432476738e-05
2.9268733168746317e-05
3.007429271636361e-05
3.0957268338185834e-05
3.193736804479129e-05
3.303303459361995e-05
3.422406495208638e-05
3.49295021186511e-05
1.8105702918849548e-06
1.9989019986128917e-06
2.3884449755588538e-06
2.866257200011813e-06
3.4241520697018132e-06
4.060559250825001e-06
4.77340865899262e-06
5.559546050122371e-06
6.414622241047945e-06
7.3330476479953845e-06
8.307982873622008e-06
9.331389011471482e-06
1.0394137486403097e-05
1.1486192021426425e-05
1.2596858474621927e-05
1.371510009558984e-05
1.4829903773899442e-05
1.5930673349099028e-05
1.7007624218707585e-05
1.8052136835958003e-05
1.905704561100487e-05
2.001684106007966e-05
2.0927782349351963e-05
2.1787942895344803e-05
2.2597207815891805e-05
2.3357247687012207e-05
2.4071475722364104e-05
2.474500819527207e-05
2.5384609475346656e-05
2.5998648902131875e-05
2.659705402354259e-05
2.719128500130705e-05
2.7794330913797905e-05
2.8420737811586744e-05
2.908666277751539e-05
2.9809959275123578e-05
3.061026537982173e-05
3.150892481143966e-05
3.2526516641923944e-05
3.3647024557930394e-05
3.431612201956859e-05
1.6484036243436368e-06
1.8393680648045355e-06
2.2380032038763613e-06
2.7316555534851462e-06
3.3116332572611454e-06
3.975847736775236e-06
4.7217325852289615e-06
5.545625078972472e-06
6.442616980119495e-06
7.406465442474658e-06
8.429552984407219e-06
9.502917787410764e-06
1.0616362291257605e-05
1.1758655202297358e-05
1.2917814413970216e-05
1.4081475371061552e-05
1.523730702840904e-05
1.6373464459533785e-05
1.747902085774788e-05
1.854437039721265e-05
1.9561544026886543e-05
2.052444448305177e-05
2.1428978598958262e-05
2.227310842081107e-05
2.3056837059864965e-05
2.3782147712376947e-05
2.4452917673970686e-05
2.507482592066297e-05
2.5655255741302448e-05
2.6203219064567338e-05
2.672929754236529e-05
2.7245620848985755e-05
2.776588243802035e-05
2.830539799118828e-05
2.888121257115108e-05
2.9512242161938015e-05
3.0219433927602804e-05
3.1025784628032585e-05
3.195409017123527e-05
3.299298173976533e-05
3.3619602177307006e-05
1.4724495972531484e-06
1.6661080825748496e-06
2.0744186579508815e-06
2.5851664791243545e-06
3.1891049591733703e-06
3.883616211835774e-06
4.665666119257626e-06
5.5311272396368134e-06
6.474566763233173e-06
7.489091505313602e-06
8.56626196256084e-06
9.696087619363943e-06
1.0867132869311918e-05
1.2066736448909526e-05
1.3281348750246904e-05
1.4496962435743938e-05
1.5699614435682025e-05
1.6875913073298302e-05
1.8013553681036005e-05
1.9101780453245507e-05
2.013174568432615e-05
2.1096779047558315e-05
2.199251784527578e-05
2.281695107772713e-05
2.3570363796944463e-05
2.4255229588150768e-05
2.4876061148687436e-05
2.543925488825526e-05
2.5952948610073774e-05
2.6426901680644115e-05
2.68724208371747e-05
2.7302335464456663e-05
2.773103376035283e-05
2.817456249410311e-05
2.8650786666649904e-05
2.917960235887286e-05
2.97831912711147e-05
3.048614773910049e-05
3.131349787464953e-05
3.225894497108349e-05
3.28364261771312e-05
1.2852152755411114e-06
1.4813164646069592e-06
1.899323247362122e-06
2.42784037239066e-06
3.0570446336273953e-06
3.7838180041690065e-06
4.6047343225415945e-06
5.515298167087334e-06
6.50963284467597e-06
7.580235227521388e-06
8.717808998397493e-06
9.911212966014903e-06
1.1147556116487914e-05
1.241244835716285e-05
1.3690402157539738e-05
1.4965364951832416e-05
1.62213368497616e-05
1.7443018095255423e-05
1.8616442083922264e-05
1.9729510981657137e-05
2.0772435792440742e-05
2.1738005264646464e-05
2.2621728303976642e-05
2.3421819709568965e-05
2.4139092994612936e-05
2.477676662736021e-05
2.5340233419191136e-05
2.583682953617609e-05
2.6275618879627482e-05
2.6667235938411143e-05
2.702377757238299e-05
2.735878713166497e-05
2.7687305766084992e-05
2.8026021977227268e-05
2.8393489465213956e-05
2.8810439057733e-05
2.9300129068858724e-05
2.9888616820455548e-05
3.0603087474774763e-05
3.144269446968471e-05
3.1963925577987185e-05
1.0903157030209197e-06
1.2881262031179954e-06
1.7149786436042915e-06
2.2610302883155907e-06
2.9159159615661235e-06
3.6760946194161603e-06
4.5378908110023116e-06
5.4966136509801215e-06
6.5460913753034475e-06
7.678295999570009e-06
8.883055368970535e-06
1.0147934707840985e-05
1.1458311057649872e-05
1.279766351153787e-05
1.4148080380997782e-05
1.549092818955096e-05
1.6807643660583793e-05
1.8080560176629895e-05
1.9293689983938745e-05
2.043339327154266e-05
2.148887627044333e-05
2.2452488028553873e-05
2.3319818529721977e-05
2.4089619429500025e-05
2.476357935448624e-05
2.534602387763115e-05
2.5843563700783483e-05
2.6264757968858862e-05
2.6619818787734266e-05
2.6920396354292743e-05
2.717944762820132e-05
2.7411215019276004e-05
2.7631309696848367e-05
2.7856909559395946e-05
2.8107063966431504e-05
2.840309644240469e-05
2.8769100533974722e-05
2.9232362383689433e-05
2.98220688330258e-05
3.054311935711705e-05
3.1000667045669813e-05
8.926249500336014e-07
1.0907220101845647e-06
1.5243087567762131e-06
2.0863565190412526e-06
2.766057451905395e-06
3.559594244505947e-06
4.463275731034086e-06
5.472482276199393e-06
6.5810029128854905e-06
7.780435343658363e-06
9.05974105138687e-06
1.0405015484652592e-05
1.179953614251772e-05
1.3224120056409214e-05
1.465776454442572e-05
1.6078537540579734e-05
1.7464614034520252e-05
1.87953565874571e-05
2.0052324311671004e-05
2.1220100712078908e-05
2.228687437208743e-05
2.3244737961897292e-05
2.4089710889364562e-05
2.482152653152031e-05
2.5443258575195988e-05
2.5960827269388462e-05
2.6382504954574386e-05
2.6718440665582394e-05
2.6980256882175056e-05
2.7180780428381774e-05
2.7333877233436253e-05
2.745444083863276e-05
2.7558517514592895e-05
2.7663557845947766e-05
2.77888197137965e-05
2.7955887798915193e-05
2.8189325305413084e-05
2.8517317461966432e-05
2.897078033388263e-05
2.956059338512974e-05
2.9946885421251655e-05
6.983466843115375e-07
8.943681221945413e-07
1.3308708116812389e-06
1.9056104797658222e-06
2.6075353112739706e-06
3.4327530090230097e-06
4.377904953046455e-06
5.4388833086386626e-06
6.609823482413098e-06
7.882206029208968e-06
9.244165253964745e-06
1.068011182575743e-05
1.217074137471648e-05
1.3693474629375274e-05
1.522331478942836e-05
1.6734044288706216e-05
1.8199629773211966e-05
1.959567543490623e-05
2.0900741510162066e-05
2.209739431118894e-05
2.3172867697024e-05
2.4119337001979688e-05
2.4933791056153548e-05
2.5617613821157387e-05
2.6175953440057946e-05
2.661700070261789e-05
2.695125605829672e-05
2.7190903817974875e-05
2.7349280227770356e-05
2.744054144845328e-05
2.7479484316205283e-05
2.7481555916232352e-05
2.7463025041902838e-05
2.7441327703696282e-05
2.743555734232222e-05
2.746711705646872e-05
2.7560535766242437e-05
2.7744377599501397e-05
2.8050987892746737e-05
2.849734116602489e-05
2.8804907853419825e-05
5.149590312870421e-07
7.053192806834799e-07
1.1387262026390846e-06
1.7206774213096151e-06
2.4400220228980264e-06
3.2930525438435345e-06
4.277350551338473e-06
5.3899792263655e-06
6.62600000890111e-06
7.977159217140557e-06
9.430865791738713e-06
1.0969583766575462e-05
1.2570780946096959e-05
1.4207482422900218e-05
1.5849440387546153e-05
1.746478298580061e-05
1.902197908118262e-05
2.0491820428618774e-05
2.184919950753124e-05
2.3074432694441078e-05
2.4154018913751553e-05
2.5080792483351877e-05
2.5853554537651795e-05
2.647630200535542e-05
2.6957229535728403e-05
2.7307665139073198e-05
2.7541061279642198e-05
2.7672146175127394e-05
2.7716290421719693e-05
2.768910529100615e-05
2.7606276508966226e-05
2.7483618759964687e-05
2.733733746641551e-05
2.7184463266832965e-05
2.7043472348125208e-05
2.693506284376204e-05
2.6883110641937262e-05
2.691581169397006e-05
2.7066138429990383e-05
2.735782412060832e-05
2.757970277919924e-05
3.507604065339209e-07
5.304802388055634e-07
9.524246723535057e-07
1.5335366334240802e-06
2.2625655128611343e-06
3.13672101805518e-06
4.155414944181324e-06
5.3177742913174774e-06
6.620600611502761e-06
8.056494121991244e-06
9.612339482027407e-06
1.1268361241446256e-05
1.2997942924311922e-05
1.4768344077056638e-05
1.6542300914677414e-05
1.828037920847712e-05
1.9943747330236637e-05
2.149698446126061e-05
2.291048640395065e-05
2.416217310434047e-05
2.523827883517372e-05
2.6133276825399865e-05
2.684905718977869e-05
2.7393619011509392e-05
2.7779522552965115e-05
2.8022353504248118e-05
2.8139366329503864e-05
2.8148401658517263e-05
2.8067146434051924e-05
2.791271348517517e-05
2.770152396195549e-05
2.7449462469490184e-05
2.7172249885721083e-05
2.6886023610358673e-05
2.6608093252363737e-05
2.6357876407095136e-05
2.6157997666047886e-05
2.603548472305113e-05
2.6022779996437077e-05
2.614884584380376e-05
2.627840811418789e-05
2.1561095871533864e-07
3.7764371611342456e-07
7.769984255149914e-07
1.345867919592738e-06
2.0734604333418202e-06
2.958899000082142e-06
4.004409435032255e-06
5.212395870665101e-06
6.582563352103247e-06
8.109265095344044e-06
9.77927138547095e-06
1.1570283016576264e-05
1.3450504088282133e-05
1.537953755045451e-05
1.7310625754708706e-05
1.9194049683239696e-05
2.098115953038284e-05
2.2628415508233978e-05
2.4100744467079678e-05
2.537368713405526e-05
2.6434163626516e-05
2.7279890521095898e-05
2.7917790588448694e-05
2.8361834434508152e-05
2.8630695409671523e-05
2.8745612239308025e-05
2.8728589907257547e-05
2.8601129127406904e-05
2.8383407103416122e-05
2.8093922950323413e-05
2.7749506700738898e-05
2.7365630716725514e-05
2.6956959368144186e-05
2.6538105898642007e-05
2.6124554441975678e-05
2.573377619602671e-05
2.5386520997221243e-05
2.5108318270700567e-05
2.493025908189396e-05
2.4885710855314912e-05
2.4916604393842225e-05
1.9178861965937428e-06
2.8106528249600644e-06
5.1359365379750816e-06
1.0005217444417119e-05
1.1949372506806729e-05
1.610686038313827e-05
1.8210533221171875e-05
2.2160263835862464e-05
2.3893454406711443e-05
2.667838046939224e-05
2.7694786571289726e-05
2.84607462203746e-05
2.8990788953610875e-05
2.9306993419707092e-05
2.943572065528527e-05
2.9404768534886455e-05
2.668425557508551e-05
2.614551438779431e-05
2.419179829077698e-05
2.386228865734961e-05
2.359569725813033e-05
1.2312744559196604e-07
2.699863855526363e-07
6.446805188419574e-07
1.1964460901494753e-06
3.881059207868365e-06
6.578855927731877e-06
8.206446194958694e-06
1.4000111067013378e-05
2.0248466664888203e-05
2.540791472154804e-05
2.9241263409116977e-05
2.8970251457808252e-05
2.861398890808617e-05
2.819173868858472e-05
2.7720044888567343e-05
2.721324344756371e-05
2.5610072919768944e-05
2.5092881332039703e-05
2.4612298410312517e-05
2.365919432761161e-05
7.736714970007393e-08
2.0443438118635786e-07
5.479385974612723e-07
1.0737330667768686e-06
1.7745343446230435e-06
2.654184566584364e-06
3.7220297718911263e-06
4.988641366822304e-06
6.4612512251454905e-06
8.13933431196298e-06
1.001061539194796e-05
1.2048154596275372e-05
1.4209191449785327e-05
1.6436394650325674e-05
1.866172697580837e-05
2.081257991646156e-05
2.2819111400593577e-05
2.4621352677300443e-05
2.617470497384827e-05
2.745278560317968e-05
2.8447507614058796e-05
2.9166793375561416e-05
2.9630788511159005e-05
2.9867569163458104e-05
2.990907888228892e-05
2.978782000199735e-05