# vtk DataFile Version 2.0
time_10.vtk
ASCII
DATASET UNSTRUCTURED_GRID
POINTS   4141  float 
1.3768660469647743e-05        1.431507704471827e-16         0.0                           
0.25                          1.3017997760727778e-05        0.0                           
0.5000126016220453            1.3066463867234167e-18        0.0                           
0.75                          1.1673422197748538e-05        0.0                           
1.0000111571573687            -7.741585686734865e-18        0.0                           
1.25                          1.0011869630197927e-05        0.0                           
1.5000093806277488            -1.5770365378547528e-17       0.0                           
1.7499999999999953            7.998369192167125e-06         0.0                           
2.000007247498011             3.793783557028146e-18         0.0                           
2.2500000000000004            5.629485394312751e-06         0.0                           
2.500004764755075             -1.42700405926297e-16         0.0                           
2.750000000000005             2.933175889224433e-06         0.0                           
3.0000019724467513            1.043631153972223e-16         0.0                           
3.25                          -6.117788389479045e-17        0.0                           
3.49999889643923              3.635632021564457e-16         0.0                           
3.75                          -3.3325045155526837e-06       0.0                           
3.999995529484374             3.320914685193031e-17         0.0                           
4.25                          -6.796999148174201e-06        0.0                           
4.499992016113636             -5.736920086544343e-17        0.0                           
4.75                          -1.040106939309043e-05        0.0                           
4.9999883695644725            2.0756916218955912e-16        0.0                           
5.25                          -1.4130633319066886e-05       0.0                           
5.499984597552543             -2.59638890947566e-17         0.0                           
5.749999999999999             -1.7994666357485925e-05       0.0                           
5.999980681776285             -1.3902910436685943e-16       0.0                           
6.25                          -2.2030718028366505e-05       0.0                           
6.499976575202859             2.6862726879065995e-15        0.0                           
6.75                          1.3731158433085134e-05        0.0                           
7.000013369047807             1.0464411372886797e-06        0.0                           
7.250001116216706             1.2565491083215822e-05        0.0                           
7.500012118390067             1.2687479513327412e-06        0.0                           
7.75000135063552              1.112156044583118e-05         0.0                           
8.000010568066786             1.5231039480082529e-06        0.0                           
8.250001612573977             9.34436559786919e-06          0.0                           
8.500008672721743             1.7951351948295588e-06        0.0                           
8.750001887102524             7.209211396037146e-06         0.0                           
9.000006418230766             2.0697471207501316e-06        0.0                           
9.250002159442476             4.722689734518034e-06         0.0                           
9.500003821046208             2.3333426707736106e-06        0.0                           
9.750002416698255             1.918808775741868e-06         0.0                           
10.000000919620069            2.5743874442341335e-06        0.0                           
2.6613132051262865e-06        0.29999882326831256           0.0                           
0.24999773020800797           0.30000281494433845           0.0                           
0.500002882503133             0.29999547610531385           0.0                           
0.7499943210237595            0.300003012344887             0.0                           
1.0000030748930633            0.2999919618275916            0.0                           
1.2499907597504554            0.30000319657513375           0.0                           
1.5000032564762418            0.2999883138742782            0.0                           
1.749987070479501             0.30000337669006083           0.0                           
2.000003438019488             0.2999845412470078            0.0                           
2.249983253717112             0.30000356579718085           0.0                           
2.500003633327312             0.2999806258431194            0.0                           
2.7499792816279456            0.3000037782838146            0.0                           
3.0000038566731706            0.29997652048723944           0.0                           
3.2499750978373196            0.3000040273338148            0.0                           
3.500001959910533             0.3000132580350603            0.0                           
3.7500128718691994            0.3000022298433785            0.0                           
4.000002378632202             0.30001201085610374           0.0                           
4.250011530788386             0.30000269978942085           0.0                           
4.500002870174337             0.30001046103768425           0.0                           
4.750009868295111             0.30000322507204935           0.0                           
5.000003407293407             0.3000085624242325            0.0                           
5.250007848634303             0.3000037755895389            0.0                           
5.500003959487351             0.300006300544327             0.0                           
5.7500054677590215            0.3000043217997849            0.0                           
6.00000449847717              0.30000369050531245           0.0                           
6.250002748719435             0.30000483957302676           0.0                           
6.500005003615659             0.30000076364719014           0.0                           
6.749999725961609             0.30000532578938627           0.0                           
7.000005480349272             0.29999757005699146           0.0                           
7.249996454817851             0.30000576464763046           0.0                           
7.500005897441034             0.2999941616560935            0.0                           
7.749992988302277             0.30000615124323143           0.0                           
8.000006273713437             0.29999059548154877           0.0                           
8.249989377894467             0.3000065137529529            0.0                           
8.50000663314075              0.2999869025422044            0.0                           
8.749985644592178             0.30000687568042866           0.0                           
9.000007000971825             0.2999830849042933            0.0                           
9.249981780735652             0.30000726505809366           0.0                           
9.500007406001304             0.2999791148752302            0.0                           
9.749977748573212             0.3000077107166519            0.0                           
10.000007876266572            0.2999749353563065            0.0                           
1.3430773008966635e-05        0.6000029323362871            0.0                           
0.2500031279376773            0.6000126890477728            0.0                           
0.5000122762371566            0.6000035622254991            0.0                           
0.7500037986123597            0.600011352416632             0.0                           
1.0000108367057006            0.6000043026598234            0.0                           
1.250004567051276             0.6000096888408157            0.0                           
1.500009054377017             0.6000051119423682            0.0                           
1.7500053889652791            0.6000076616951289            0.0                           
2.0000069035849006            0.6000059438052567            0.0                           
2.250006218537826             0.6000052667504284            0.0                           
2.5000043900774527            0.6000067559487828            0.0                           
2.750007016562095             0.6000025267838834            0.0                           
3.000001543175398             0.6000075191771848            0.0                           
3.250007761231363             0.5999994833587723            0.0                           
3.499998412435573             0.6000082238040759            0.0                           
3.750008441549182             0.5999961976364263            0.0                           
3.999995057346668             0.6000088500235632            0.0                           
4.250009043244535             0.5999927211524204            0.0                           
4.499991528829891             0.6000094141161064            0.0                           
4.750009594265556             0.5999891019651838            0.0                           
4.999987868825429             0.600009950845819             0.0                           
5.250010130287792             0.5999853638501947            0.0                           
5.499984091149983             0.6000104995061566            0.0                           
5.750010692602685             0.5999815002106558            0.0                           
5.999980178748486             0.6000111040239251            0.0                           
6.250011325505984             0.5999774729561009            0.0                           
[...]
POINT_DATA  4141
SCALARS Con float 1
LOOKUP_TABLE default
3.079375380211341e-05
3.3013213674415174e-05
3.740510625597946e-05
4.252813285920997e-05
4.8305084513337415e-05
5.47504289976837e-05
6.187500078993601e-05
6.967836052705148e-05
7.814765181657745e-05
8.725738237617195e-05
9.696971146201755e-05
0.00010723519555902413
0.00011799391764153171
0.0001291768647254741
0.00014070733866192587
0.0001525020117466298
0.00016447145332395755
0.00017651941558044333
0.00018856563943834138
0.00020071644958337615
0.00021430381549043936
0.00022791418557269885
0.00024017019846271737
0.0002518207656227316
0.00026345353244416203
0.00027503410165903157
0.0002865795044134131
0.0002981214732319726
0.0003097133360634254
0.0003214260880716487
0.00033334632562188334
0.00034557447550459546
0.00035822327767705313
0.0003714164032966455
0.00038528708175166186
0.00039997666929638575
0.00041563292074614614
0.00043240539335172605
0.0004504043011164577
0.00046914354264474266
0.00047993548646680663
3.125202107479711e-05
3.352260269045047e-05
3.800264105027009e-05
4.322052248029478e-05
4.909923702382868e-05
5.565143605857999e-05
6.288614481260969e-05
7.080101113822138e-05
7.938125543245662e-05
8.859953257601432e-05
9.841632281631583e-05
0.0001087808130238957
0.00011963223358542364
0.0001309016151752946
0.0001425139714648834
0.00015439123413968687
0.00016645676478197833
0.00017864983474747147
0.00019094919666923322
0.00020365359688302162
0.0002164869709335519
0.0002290970528463391
0.00024133401097181127
0.0002533583428506192
0.0002651228537873269
0.0002767630148285893
0.00028832839913573073
0.00029987409415171946
0.00031146445152321065
0.0003231771979890093
0.0003351034941029958
0.00034734727498248824
0.0003600242346675739
0.00037326066484735766
0.0003871922031804089
0.00040196245464789535
0.00041772126818117314
0.00043462018785205226
0.0004527706569424615
0.00047169466651096197
0.00048260562438714235
3.099112399296592e-05
3.326103471725773e-05
3.7751021166943705e-05
4.2992033361741915e-05
4.890526110418548e-05
5.5502659360339634e-05
6.279230248646752e-05
7.077081669681021e-05
7.942237752241006e-05
8.87186533908801e-05
9.861931781129123e-05
0.00010907313333577291
0.00012001965407560552
0.0001313916600027741
0.00014311866892456314
0.0001551322311637027
0.00016737573011537733
0.00017981572184100155
0.00019249366171006466
0.00020507740336466124
0.00021711163956586026
0.00022910926620529833
0.00024145112432488855
0.0002536154950073897
0.0002655334494999727
0.0002772416966605887
0.0002888179901554316
0.0003003324405738697
0.0003118607568197642
0.0003234877657732894
0.00033530950983112756
0.0003474336378756214
0.0003599790478217292
0.0003730751215196658
0.00038686070795893805
0.00040148292091822003
0.00041709552059473895
0.000433854416229127
0.0004518764820584619
0.00047068622430479945
0.00048153546908944557
3.0539273702171164e-05
3.281302312395245e-05
3.732166542179364e-05
4.2601059106942615e-05
4.857179437789541e-05
5.524441120092525e-05
6.262538795646772e-05
7.070958500275295e-05
7.947932671829423e-05
8.890442737943886e-05
9.894280925113952e-05
0.00010954172802152222
0.00012063965418349705
0.00013216888933700386
0.00014405897452359132
0.0001562409199734609
0.0001686497055448515
0.00018122452439240486
0.00019381530505018554
0.0002062320584457184
0.00021845685787528484
0.0002305507832040371
0.00024260118672896942
0.000254639312655559
0.00026651095185213424
0.0002781891152199814
0.0002897078934206441
0.00030113045348498176
0.0003125330262478593
0.0003240037551467457
0.0003356425336646121
0.00034756100913890673
0.0003598822465755414
0.000372740106904436
0.0003862784033776255
0.0004006498360729614
0.00041601451930024916
0.0004325356286468437
0.00045033823136689466
0.0004689603361994562
0.0004797181465420064
2.9900406487181038e-05
3.217979384447967e-05
3.6715944702810727e-05
4.2050580677203836e-05
4.8103213900721974e-05
5.488243697110115e-05
6.239240186797125e-05
7.062538730315012e-05
7.956094147325095e-05
8.916596200107761e-05
9.939534486245811e-05
0.00011019320644592402
0.00012149465568694158
0.00013322802109145065
0.0001453172328689595
0.00015768322816538756
0.00017024282150833564
0.00018289229750725208
0.00019551429400919724
0.000208010798603021
0.00022032631601449278
0.00023248125424348338
0.0002445106841797727
0.0002564034420310615
0.0002681400182492469
0.00027969017937629623
0.00029106852808363033
0.0003023228361778253
0.0003135238084612145
0.00032475889074371086
0.0003361299683924697
0.0003477521762692172
0.00035975311321788833
0.0003722720878969335
0.00038545930953339067
0.0003994749240424122
0.0004144876741670386
0.0004306706860288988
0.00044816083629859707
0.00046651462665314307
0.0004771401138995891
2.9068759084150738e-05
3.135647236246707e-05
3.5929977464257844e-05
4.1337793785135984e-05
4.7497875307014515e-05
5.441619627403856e-05
6.209382824061284e-05
7.051961066070194e-05
7.966933729996237e-05
8.950584331141586e-05
9.99796198146908e-05
0.0001110299285945532
0.00012258634311255494
0.00013457052645804803
0.0001468978147658373
0.0001594779884657393
0.00017221351525076355
0.0001850013737481171
0.00019774027086265876
0.00021034499159759915
0.00022276548168237087
0.0002349825972643572
0.00024699395529133235
0.0002587984896900622
0.0002703857597204653
0.0002817555808871174
0.00029292459776580665
0.0003039358904291311
0.0003148560593289186
0.0003257714739986151
0.0003367854361878218
0.00034801642770074264
0.00035959693618451257
0.00037167253921880397
0.00038440108857549073
0.0003979518405612043
0.0004125042629846304
0.0004282440324851425
0.00044532303614122957
0.0004633219144779086
0.0004737716479217157
2.803848218733087e-05
3.033774747688307e-05
3.4959644928018476e-05
4.0459891632278413e-05
4.675430936996862e-05
5.384555236222688e-05
6.173084023960445e-05
7.03947227807815e-05
7.980828038794322e-05
8.99291783019693e-05
0.00010070221168756183
0.00011206029854613338
0.00012392585195913997
0.0001362123734642215
0.00014882604033323742
0.00016166702915613475
0.00017463157657424607
0.00018761564025970972
0.00020052180916663552
0.0002132686841237206
0.00022579694105667847
0.00023807057575804573
0.0002500706838905915
0.00026178770717622646
0.0002732202545154921
0.0002843766349950469
0.0002952821435883338
0.00030598218629169957
0.00031654376745921474
0.0003270541180705215
0.0003376188665546651
0.0003483604469609245
0.0003594168956970861
0.0003709409340001072
0.0003830992216831436
0.0003960716343352409
0.0004100502904053484
0.0004252358292915913
0.0004417982843939719
0.0004593482637706664
0.0004695743251068926
2.680433005148923e-05
2.9118928244279592e-05
3.3801397808064786e-05
3.94146369167429e-05
4.5871655872038966e-05
5.317105467642798e-05
6.130545216395393e-05
7.025431518799442e-05
7.998313336622938e-05
9.044341274234681e-05
0.00010157312802905671
0.00011329763198196254
0.00012553097980816407
0.00013817761119255955
0.00015113432433838515
0.0001642927150105879
0.0001775423651860228
0.00019077534263833463
0.00020389195342915514
0.00021680658136043735
0.00022945211342583011
0.00024178093955740438
0.00025376318918860906
0.0002653841636001524
0.00027664273016143886
0.0002875526449546347
0.0002981446031695745
0.00030846868059731153
0.0003185951961926735
0.00032861454210943766
0.0003386362035588114
0.000348787657530044
0.00035921341157025064
0.00037007427106111504
0.000381546795545337
0.00039382283420469447
0.0004071088673482636
0.0004216226972978578
0.00043755546613451516
0.0004545537892841341
0.0004645030002282317
2.5362911504204518e-05
2.769701230672262e-05
3.245312189323941e-05
3.820099027756001e-05
4.4850036426112614e-05
5.239406907006105e-05
6.082041831818401e-05
7.010277848009004e-05
8.020030881346007e-05
9.105751061857186e-05
0.00010260457432072486
0.00011475822172482122
0.00012742307139043733
0.00014049352908527039
0.00015385624348908297
0.00016739319278661466
0.00018098553349191134
0.00019451819824534546
0.00020788493399008707
0.00022099308243891876
0.0002337671121738421
0.000246150386891574
0.00025810523456935115
0.0002696121974105331
0.00028066956896584833
0.0002912935786472753
0.0003015193380561511
0.0003114017010255938
0.0003210157828726915
0.00033045682640316944
0.00033983965623883946
0.0003492979737613125
0.00035898373906458286
0.00036906674088404864
0.0003797343871821718
0.0003911916222474526
0.00040366071759579064
0.0004173785349269337
0.00043256003696010774
0.0004488940573387735
0.00045850716077914687
2.3714173266577142e-05
2.6072014034520037e-05
3.091514733250231e-05
3.68197777160459e-05
4.3690879865973486e-05
5.151676406027226e-05
6.027889219882933e-05
6.994466400933487e-05
8.046634380742918e-05
9.178074834683504e-05
0.00010380943323880286
0.00011645945548784601
0.00012962479579433996
0.00014318848408815111
0.0001570254655591505
0.00017100619735108575
0.0001850009244744475
0.000198884445684603
0.00021254099861161755
0.00022586872779440577
0.00023878320332627057
0.0002512196570899187
0.00026313399117697814
0.00027450298948609363
0.00028532419483805015
0.00029561587707707904
0.00030541711645156583
0.00031478789301870973
0.0003238090132477775
0.0003325818008089737
0.00034122763122212534
0.0003498874756808573
0.00035872159044347037
0.00036790946484360304
0.0003776500405478254
0.000388162142823533
0.0003996848724973926
0.0004124756309721998
0.00042677553127379704
0.0004423219170437981
0.0004515329344240218
2.186319260136587e-05
2.4248524104386022e-05
2.9191390526188674e-05
3.527438103307181e-05
4.239715247280808e-05
5.05418910657923e-05
5.9683801625783797e-05
6.978369967457267e-05
8.078662540093442e-05
9.262121561268235e-05
0.0001051996249145895
0.00011841815250001093
0.0001321586917212151
0.00014629108566630158
0.00016067639013209967
0.0001751709793091989
0.00018963131517741428
0.00020391909954043362
0.000217906404962183
0.00023148033049726164
0.000244546784191831
0.0002570331269799364
0.00026888971213140345
0.0002800904871970448
0.00029063300018172605
0.00030053807046749603
0.00030984931653384537
0.00031863259044649504
0.00032697537291817027
0.0003349861457930088
0.00034279385487604076
0.0003505475670037215
0.0003584164360189756
0.00036659005372182817
0.00037527918948527514
0.0003847168711397293
0.0003951595399422164
0.000406886050172126
0.0004201654631693027
0.00043478987880680433
0.00044352570897114287
1.9822258684883685e-05
2.2237502484144077e-05
2.729059141500889e-05
3.357139085032806e-05
4.097342485843838e-05
4.9472302419379385e-05
5.90368664519149e-05
6.962139811468325e-05
8.116370481956347e-05
9.358397365230697e-05
0.00010678427533778965
0.00012064894254142597
0.00013504600123124844
0.00014982976348145753
0.0001648445550904879
0.0001799294542106129
0.00019492376477699168
0.00020967285179501462
0.00022403387193884461
0.00023788095481254426
0.0002511094215612142
0.00026363883124473484
0.00027541477567310444
0.00028640959055126203
0.000296622194000638
0.00030607734625650505
0.00031482457251769455
0.00032293695536946443
0.0003305099469465944
0.0003376603541179403
0.0003445256183767712
0.0003512635187069474
0.00035805238996245727
0.0003650919080973222
0.00037260445295159383
0.00038083696896724136
0.0003900630689696937
0.00040058325608447365
0.0004126956229621211
0.00042625304515284693
0.0004344334155761523
1.7613220668400957e-05
2.0058247093072203e-05
2.5227588982325565e-05
3.172114740734622e-05
3.942569461154981e-05
4.831009382188025e-05
5.8337156473135834e-05
6.945515945300267e-05
8.159510447987123e-05
9.466876729403534e-05
0.00010856755034729994
0.00012316245372456281
0.0001383054296360394
0.00015383224991068108
0.00016956685559659453
0.00018532697250284427
0.00020093061917182974
0.00021620300131124779
0.00023098323008325421
0.00024513032149255294
0.00025852802079269504
0.0002710882143691668
0.00028275281830476444
0.00029349430493864
0.0003033150929391441
0.0003122461468211712
0.00032034512322263396
0.0003276943665626949
0.0003343990598113415
0.00034058569964650877
0.00034640113592718734
0.0003520122681532467
0.0003576065186414045
0.00036339311769189946
0.00036960518841766603
0.0003765025511036909
0.0003843749910840597
0.00039354395450853227
0.000404336749516663
0.00041667260502108655
0.0004242104471650164
1.526997446217945e-05
1.7740422559856144e-05
2.3024503503747513e-05
2.9738050631434787e-05
3.776084003107297e-05
4.705528201886328e-05
5.757909481866778e-05
6.927575587062655e-05
8.207049839584255e-05
9.58671559656341e-05
0.00011054602045894402
0.00012596318242940368
0.00014195173349798926
0.00015832500724909782
0.00017488179082105498
0.00019141321749600572
0.00020771078187711145
0.00022357480832724714
0.00023882261441882105
0.00025329566135719043
0.00026686516363352
0.00027943581054237727
0.00029094755647967517
0.0003013756234138132
0.000310729078725104
0.00031904841382063997
0.00032640260374574795
0.0003328860930223555
0.0003386160722219055
0.0003437303667662498
0.00034838613925527355
0.0003527595819597802
0.0003570466693350386
0.00036146502242226624
0.0003662568504947707
0.0003716929017886664
0.0003780771219138453
0.0003857501393789595
0.0003950675683437089
0.0004060198824740442
0.0004128222873176249
1.284086546611866e-05
1.5325935160392195e-05
2.071165358402117e-05
2.7640488994602243e-05
3.598561699926583e-05
4.5703922957181676e-05
5.6749813695022706e-05
6.906410815905231e-05
8.256817044821655e-05
9.715897897172975e-05
0.00011270548191377894
0.00012904700024859414
0.0001459941813060653
0.00016333276132315567
0.00018083004985026193
0.00019824365499655425
0.00021533172045658873
0.0002318636703074533
0.0002476304211985783
0.0002624531218258088
0.0002761896951508376
0.00028873880229037094
0.00030004120193921597
0.00031007879300273263
0.00031887183348994615
0.00032647501926560957
0.00033297301154954336
0.0003384760843670234
0.00034311631589183117
0.00034704474903601265
0.00035042972888095676
0.0003534565970852378
0.0003563287955617845
0.000359270414775832
0.0003625301550216179
0.00036638662478501356
0.00037115473500233645
0.00037719128572220233
0.00038487810926975233
0.00039428083165788107
0.00040025067997519106
1.039060375277076e-05
1.2870306537601919e-05
1.832793060031535e-05
2.5450266591470493e-05
3.410515064632524e-05
4.424570151997384e-05
5.582590017239757e-05
6.878734549016685e-05
8.305072166433552e-05
9.850812618262256e-05
0.00011501725040511042
0.0001323983932647663
0.00015043505359046448
0.00016887845884336214
0.00018745587341112053
0.000205882055052847
0.0002238727111440384
0.00024115853988005724
0.0002574983490947652
0.0002726899065338748
0.000286577588624957
0.00029905637344414325
0.0003100722630392765
0.0003196196538597273
0.00032773648428402474
0.0003344980604241765
0.0003400105228642176
0.00034440472674922355
0.0003478311036983345
0.00035045599231122
0.0003524596246646015
0.0003540358930179454
0.00035539394046908414
0.0003567615210143722
0.00035839013454779493
0.000360561877192236
0.0003635978934668858
0.0003678668278348666
0.00037377320675718086
0.00038146086399326796
0.0003864993418345376
8.00101624735822e-06
1.0442978905505837e-05
1.5920364065670192e-05
2.319141234738159e-05
3.2121076043323744e-05
4.266114360460548e-05
5.476953842935557e-05
6.839419251898237e-05
8.346010307301114e-05
9.985773210911184e-05
0.00011743406241329494
0.00013598762018942758
0.00015526851706473854
0.00017498405707151607
0.0001948097400704058
0.0002144047073052075
0.00023342995357959965
0.0002515671603517885
0.0002685359060898278
0.0002841073510886844
0.00029811307778445734
0.00031044867714381986
0.00032107237348944547
0.0003299996492291836
0.0003372952020176472
0.00034306360293088567
0.0003474399270503049
0.00035058142910578377
0.0003526608523444435
0.0003538619111451529
0.00035437702156967564
0.00035440735068559395
0.00035416508664185795
0.00035387784041943364
0.0003537950868019968
0.00035419664429533717
0.0003554033239548486
0.000357788809680022
0.0003617764338709638
0.0003675896753158189
0.0003715993698151084
5.770145783147659e-06
8.125944992365029e-06
1.354233736754972e-05
2.0889035902015697e-05
3.002985215222003e-05
4.0918404377175154e-05
5.3524225732864155e-05
6.780997465005374e-05
8.37123406302392e-05
0.00010112513459387468
0.00011988593524462336
0.00013976818253806577
0.0001604803040959675
0.00018167279438715132
0.00020295313988814514
0.0002239071832092062
0.00024412440238634437
0.00026322377506219686
0.0002808768349873644
0.00029682506133772675
0.0003108898926929791
0.00032297499271557783
0.00033306162447211036
0.0003411988587849206
0.00034749073909100253
0.00035208248014264367
0.00035514742749768454
0.0003568760202181912
0.0003574674944325781
0.00035712462340704707
0.00035605151315585214
0.0003544542733790862
0.00035254433774314323
0.0003505441888635474
0.00034869534793159515
0.00034726855617836104
0.0003465761924564714
0.0003469872338012868
0.00034893334791643395
0.0003527262849864561
0.00035561654149469897
3.8060948490203844e-06
6.009232037868958e-06
1.1253251523143966e-05
1.8569167055288332e-05
2.781969125187131e-05
3.8969418582116145e-05
5.2010666017852e-05
6.693218597117786e-05
8.369285296324802e-05
0.00010219736895447046
0.00012227660102921906
0.00014367516438457367
0.00016604886716192345
0.00018897370075044174
0.00021196641209999574
0.00023451474821092094
0.0002561133622512252
0.00027630019408851576
0.00029468790438503324
0.00031098612521282136
0.0003250121808407324
0.00033669034504437274
0.00034604148318900774
0.0003531662465910672
0.0003582251591484773
0.0003614187112161683
0.0003629696874395463
0.0003631091348222842
0.00036206657975599926
0.00036006451744578224
0.000357316825826781
0.00035403065700722014
0.0003504113133604585
0.000346669743353251
0.0003430324139930747
0.000339753430282644
0.00033712898381991596
0.00033551290647251234
0.00033533002743918645
0.0003369604386200869
0.00033864512668062074
2.2352330010896364e-06
4.193089651825229e-06
9.117698655161101e-06
1.62532516036647e-05
2.546880467024072e-05
3.6751969191492464e-05
5.0130340638790574e-05
6.563425414823048e-05
8.325970159473145e-05
0.00010293397285494695
0.00012448659261890554
0.00014762978884432057
0.00017195270083920217
0.0001969325343986642
0.00022196328542566465
0.0002463993849355811
0.00026960791712639164
0.0002910209957929398
0.0003101794383923106
0.0003267611815842824
0.00034059148343211455
0.00035163589277502827
0.00035998003371737295
0.000365801712644143
0.0003693407875926782
0.00037087115163976335
0.0003706776042725604
0.0003690389501471321
0.0003662173951288934
0.0003624537468309521
0.00035796743198539456
0.00035296047211857946
0.0003476246027075478
0.0003421510316621685
0.00033674253568326143
0.0003316279666526291
0.00032707910025792683
0.00032343040425774613
0.00032108914949184023
0.0003204928956444259
0.00032088964290418934
2.3546346151433154e-05
3.491413099485599e-05
6.4711276794394e-05
0.00012746416109180392
0.0001525875254281554
0.00020639995224749452
0.00023366948663846145
0.00028494446767263865
0.0003074798199921795
0.00034375114465027477
0.0003570166695291978
0.0003670311543946258
0.00037397828860015746
0.0003781410258995638
0.0003798589280566739
0.00037949148159332585
0.00034408900640357814
0.00033704970481493354
0.00031148929625494383
0.0003071719994752025
0.0003036730652947657
1.212035449150718e-06
2.952976406785374e-06
7.5298651685215304e-06
1.4424498986865713e-05
4.860686562429472e-05
8.327292389899656e-05
0.00010424842348835268
0.00017911747860289938
0.0002601128533290493
0.0003271932934739473
0.00037739026993662786
0.0003738806665724089
0.00036925221741580696
0.00036375611874211506
0.00035760826171590907
0.00035099617996400557
0.0003300494594890119
0.0003232843549740028
0.0003169950548532989
0.00030450771227771324
7.464836036722581e-07
2.217054775421527e-06
6.370695873314687e-06
1.2915152581058219e-05
2.1760015995217915e-05
3.2950635554814446e-05
4.660426304142961e-05
6.285536256958229e-05
8.179651913935192e-05
0.00010342113010804455
0.00012757151087942106
0.00015390064548127333
0.00018185671780778447
0.00021069857726378904
0.00023954521887683067
0.00026745455153891396
0.0002935182802084231
0.00031695421659379416
0.0003371777331820614
0.00035383973995374725
0.00036682840843112316
0.00037624020443121107
0.0003823314751648458
0.0003854628335985215
0.0003860465505502557
0.000384503340689771
0.00038123137911319125
0.00037658744041716064