# vtk DataFile Version 2.0
time_10.vtk
ASCII
DATASET UNSTRUCTURED_GRID
POINTS   4141  float 
3.4789520419630826e-05        8.183185474543458e-18         0.0                           
0.2500000000000013            3.291824737396742e-05         0.0                           
0.5000318768407074            -9.994839018367771e-16        0.0                           
0.75                          2.954858797109613e-05         0.0                           
1.000028250476707             -2.0256414125836182e-17       0.0                           
1.25                          2.5364908220719246e-05        0.0                           
1.5000237718249039            -1.4597240574305225e-17       0.0                           
1.7500000000000009            2.0278528789503136e-05        0.0                           
2.0000183786920105            3.2440527453327344e-18        0.0                           
2.25                          1.4280829566696705e-05        0.0                           
2.500012088953116             -1.8632268464451206e-17       0.0                           
2.7499999999999973            7.443197589998144e-06         0.0                           
3.0000050051120817            4.022386929938163e-18         0.0                           
3.25                          6.480900971950316e-17         0.0                           
3.4999971904948195            1.119694056834699e-16         0.0                           
3.75                          -8.482496463936913e-06        0.0                           
3.9999886204233723            -3.9268112670387055e-17       0.0                           
4.25                          -1.7304681935783564e-05       0.0                           
4.499979671177067             -6.132448008708431e-18        0.0                           
4.75                          -2.649060481108626e-05        0.0                           
4.999970374064016             -1.534949244710055e-16        0.0                           
5.25                          -3.6005380046001795e-05       0.0                           
5.499960747968069             -1.3166027836637865e-16       0.0                           
5.75                          -4.587240597689907e-05        0.0                           
5.9999507458270225            -5.3417481729411114e-17       0.0                           
6.25                          -5.618756782286898e-05        0.0                           
6.4999402477249335            -2.5181874765351707e-17       0.0                           
6.75                          3.469254870774115e-05         0.0                           
7.000033791000906             2.608390316539389e-06         0.0                           
7.250002788466038             3.178335002972416e-05         0.0                           
7.500030662896954             3.181551182312513e-06         0.0                           
7.750003392354821             2.8158335365172665e-05        0.0                           
8.000026764676482             3.8360090875395505e-06        0.0                           
8.250004066041573             2.367797543765232e-05         0.0                           
8.500021981291948             4.535289119724173e-06         0.0                           
8.750004771655005             1.8279653977162895e-05        0.0                           
9.000016276953236             5.2411174658811445e-06        0.0                           
9.250005471722188             1.1980179733352786e-05        0.0                           
9.500009693532014             5.918988002142288e-06         0.0                           
9.75000613347654              4.866070622345695e-06         0.0                           
10.000002328577457            6.539490199515934e-06         0.0                           
6.7642461624796535e-06        0.2999970001950069            0.0                           
0.24999421970171212           0.3000071613251737            0.0                           
0.5000073358344008            0.29998848258448185           0.0                           
0.7499855413182569            0.30000767168549297           0.0                           
1.0000078336835134            0.299979531125699             0.0                           
1.249976467323447             0.30000814917134594           0.0                           
1.5000083046041937            0.2999702304155481            0.0                           
1.7499670582950912            0.3000086166607342            0.0                           
2.000008775863952             0.2999606027324575            0.0                           
2.2499573149508465            0.3000091073990732            0.0                           
2.500009282470378             0.29995060154285663           0.0                           
2.749947166050581             0.3000096578271858            0.0                           
3.0000098605422583            0.29994010656015446           0.0                           
3.2499364680135785            0.30001030125285866           0.0                           
3.500004873325861             0.30003350387835237           0.0                           
3.7500325402117554            0.30000557036432124           0.0                           
4.000005953959437             0.3000303846010046            0.0                           
4.25002917940986              0.3000067809686286            0.0                           
4.5000072193460525            0.30002648763453554           0.0                           
4.750024993288412             0.3000081319297498            0.0                           
5.000008600325196             0.3000216958774959            0.0                           
5.250019891132173             0.3000095468956002            0.0                           
5.500010019553195             0.30001597259407636           0.0                           
5.750013862637665             0.30001095098458436           0.0                           
6.000011405355599             0.30000935601441175           0.0                           
6.250006966095494             0.3000122830722784            0.0                           
6.500012705547957             0.30000192480163357           0.0                           
6.749999287767206             0.3000135366519466            0.0                           
7.000013935882948             0.2999938056840833            0.0                           
7.249990968057113             0.3000146705323427            0.0                           
7.500015013964119             0.29998513003401894           0.0                           
7.74998214135298              0.300015671115228             0.0                           
8.00001598857163              0.29997604357346497           0.0                           
8.249972939234128             0.3000166113165309            0.0                           
8.500016921224248             0.29996662511482597           0.0                           
8.749963414832221             0.3000175508765311            0.0                           
9.000017876049453             0.2999568794983886            0.0                           
9.249953548233902             0.30001856092662776           0.0                           
9.500018926066792             0.2999467358767034            0.0                           
9.749943243041173             0.3000197144508389            0.0                           
10.000020142177593            0.29993604876290714           0.0                           
3.3915832792022486e-05        0.600007290865761             0.0                           
0.2500077962694316            0.6000320672545222            0.0                           
0.5000310348946713            0.6000089164185347            0.0                           
0.7500095253173791            0.6000287177330973            0.0                           
1.0000274210023243            0.6000108224449304            0.0                           
1.2500115023772516            0.6000245288036287            0.0                           
1.5000229274715864            0.6000129030998609            0.0                           
1.7500136150776258            0.6000194074951919            0.0                           
2.000017489112653             0.6000150410826021            0.0                           
2.2500157472975575            0.6000133429316621            0.0                           
2.5000111203062008            0.6000171292515295            0.0                           
2.75001779978542              0.6000063924975111            0.0                           
3.0000038948766634            0.6000190940409111            0.0                           
3.2500197180296464            0.5999986610228755            0.0                           
3.4999959382985035            0.6000209118705854            0.0                           
3.750021474399317             0.59999030411523              0.0                           
3.9999874016968944            0.600022530654572             0.0                           
4.250023030835217             0.5999814521138587            0.0                           
4.499978414096689             0.6000239919364475            0.0                           
4.7500244592356               0.5999722274803394            0.0                           
4.999969082438263             0.6000253847739434            0.0                           
5.250025850666801             0.5999626906661006            0.0                           
5.4999594417109385            0.600026809093344             0.0                           
5.750027310049048             0.5999528245847894            0.0                           
5.999949448187912             0.6000283763512331            0.0                           
6.250028949681024             0.5999425319865835            0.0                           
[...]
POINT_DATA  4141
SCALARS Con float 1
LOOKUP_TABLE default
0.00019101378871238343
0.00020532506720483836
0.00023363878144189374
0.00026669712161159204
0.00030401210236527147
0.00034568424027668924
0.0003917898302529761
0.0004423317044532338
0.0004972318120806403
0.0005563297534679493
0.0006193846196553983
0.0006860797813182823
0.0007560301324984164
0.000828790913293569
0.0009038666657006386
0.0009807177478824204
0.001058763323796762
0.0011373766042507196
0.0012160368224340549
0.0012954868459013017
0.001384655236853142
0.0014740664033361065
0.001554464369043632
0.0016309279520295976
0.0017073658423120055
0.0017835480825799251
0.00185958070761198
0.001935664962382702
0.0020121432840497573
0.0020894733780026085
0.002168214564696998
0.00224901599776314
0.0023326066908022753
0.0024197862796131887
0.0025114159023999416
0.002608408685755093
0.002711718288025198
0.002822309046933277
0.0029408891593705835
0.0030642721313822495
0.0031353211114573377
0.00019394275174023097
0.0002085873010913011
0.0002374731283409964
0.0002711480449587989
0.00030912534813499256
0.00035149382580180745
0.00039831803892947443
0.00044958840691770055
0.0005052143826745676
0.0005650235337521859
0.0006287640569813875
0.0006961104674117264
0.000766672234059529
0.0008400051393843777
0.000915625423473111
0.0009930289430109414
0.0010717210113543897
0.0011513128280101763
0.0012316818200059224
0.0013148275045004284
0.0013989341068192328
0.0014816482411978665
0.0015619694534844619
0.0016409454307007437
0.0017182822151134984
0.0017948788779022036
0.0018710598458732135
0.0019471823378825806
0.0020236624149942407
0.0021010026006674934
0.0021797925098570293
0.0022607045738991037
0.0023444873467738008
0.0024319578126172467
0.0025239930511708063
0.002621521062017165
0.002725509364310085
0.0028369354372839387
0.002956515462507678
0.003081115210180843
0.0031529480000879097
0.00019229307815706026
0.00020693105153279085
0.00023587739780066492
0.0002696974992966364
0.0003078934696130136
0.0003505498540789191
0.0003977253141094091
0.00044940389559620816
0.000505488530955039
0.0005658006590409315
0.0006300835494950517
0.0006980093479612831
0.0007691901577708158
0.0008431939501171689
0.0009195676090043432
0.0009978719184614033
0.0010777465811029994
0.0011589858721156269
0.0012418789773491104
0.0013242290428482429
0.0014029787521466835
0.0014815719344808908
0.0015625843139208293
0.0016425178147216315
0.0017208971379210484
0.0017979661787495785
0.0018742370898629076
0.0019501680207664046
0.0020262511627616013
0.00210303665290015
0.0021811467956041226
0.002261278865616687
0.002344202843805056
0.002430756356266218
0.0025218379503699076
0.002618399011267431
0.002721433116854007
0.0028319466720631405
0.002950691312601717
0.003074547107809843
0.0031459758005992927
0.00018943361364395924
0.0002040928975939621
0.00023315298631081872
0.0002672135222284954
0.00030577331675220803
0.00034890821205023527
0.00039666694246610055
0.0004490225172558141
0.0005058662684794488
0.0005670080243743206
0.0006321801310340197
0.0007010454372660682
0.00077320957560605
0.0008482380735599904
0.0009256786950211731
0.001005089199486488
0.001086053484559355
0.001168181616719924
0.001250487081671777
0.0013317059177924005
0.0014117279460173814
0.00149097359754233
0.0015700372230637984
0.0016491309248503226
0.0017272172895243148
0.001804106306098537
0.001880016937446654
0.0019553598127431946
0.002030630166827875
0.002106400042316669
0.0021833173175750766
0.0022621058730698715
0.0023435634309853215
0.0024285574659945745
0.0025180195475329506
0.002612938219641354
0.0027143491610253753
0.0028233066732537932
0.002940615969551907
0.0030632444896172965
0.0031340750779713543
0.00018539124225388725
0.00020008179790921324
0.00022930981604369903
0.0002637163894016034
0.0003027941951877585
0.00034660708154714065
0.0003951892872028425
0.00044849763908525337
0.0005064060090533097
0.0005687058244540395
0.0006351103032968827
0.0007052623902099783
0.0007787462925288146
0.0008551019545429969
0.0009338404683704351
0.001014452861817461
0.0010964016626168727
0.0011790107939370087
0.0012615094089593656
0.0013432547540818203
0.001423885937541116
0.0015035482484391527
0.0015824830374636
0.001660618371333772
0.0017378207080991498
0.0018138800522625041
0.0018888830913952011
0.0019631362368290593
0.0020370967887031223
0.0021113314724969297
0.002186501034288693
0.002263352365578154
0.0023427132707233124
0.0024254874429155185
0.0025126489893348264
0.0026052358990839206
0.002704340995811101
0.0028110842458789723
0.002926348391257227
0.0030472225881372633
0.0031171899244926797
0.00018013013848672873
0.00019486758755371831
0.0002243238114561283
0.0002591886696184655
0.0002989458420602894
0.00034364300592920464
0.0003932951735409353
0.0004478375755565789
0.0005071204002440008
0.0005709093438811619
0.000638889591790312
0.0007106730247249407
0.0007858081642645382
0.0008637916033063832
0.0009440780052206118
0.0010260845589325207
0.001109178534273693
0.0011926886029082029
0.0012759530844818432
0.0013584153244279743
0.0014397512827084603
0.0015198407113482546
0.001598672434962517
0.0016762406540809412
0.001752472790806759
0.0018273603412905302
0.001901003537060514
0.0019736764452619854
0.0020458079046165164
0.00211795660277401
0.0021907921126809392
0.0022650832472846383
0.0023416901588204225
0.0024215581934959253
0.002505712278409237
0.002595250936559319
0.002691338132819178
0.0027951768985130278
0.0029077492162588154
0.003026302663272438
0.003095122198234679
0.00017361441675259223
0.0001884176340590968
0.00021816966683441634
0.00025361312007185803
0.0002942192388413631
0.00034001515425658373
0.0003909918136870074
0.00044705748750556077
0.0005080325905894506
0.000573650014954921
0.0006435586085918846
0.0007173295485535784
0.0007944651214251611
0.0008744088448780769
0.0009565554710678962
0.001040259115208972
0.001124846334958725
0.0012096400637103156
0.0012940053044056383
0.001377411449338333
0.0014594723244138793
0.0015399542524703342
0.0016187343876378733
0.0016957488211343191
0.0017709844502840513
0.0018444891108599399
0.0019164204440237313
0.0019870673601683096
0.0020568604946053374
0.0021263634069630002
0.002196260521090569
0.002267346527186526
0.002340518302350826
0.002416768668502816
0.0024971811803970213
0.002582925044833503
0.002675248293070627
0.0027754532313654465
0.002884641820335806
0.003000257919071504
0.003067615494160321
0.00016581259416426135
0.000180703757772528
0.0002108260698818691
0.00024697639534985413
0.0002886094117539937
0.0003357271435184399
0.00038829178322794016
0.0004461796562353308
0.0005091758772693715
0.0005769742439722063
0.0006491801037510494
0.0007253161139431192
0.000804830666980302
0.0008871085666041867
0.0009714835552774371
0.001057253897555732
0.0011437030070961037
0.0012301288790465027
0.0013158819821249932
0.0014004037488761394
0.001483255691925578
0.0015641258489103296
0.0016428169509843243
0.0017192293009447473
0.0017933501082781646
0.001865262387301284
0.0019351588621929084
0.0020033586899601673
0.00207031373550426
0.0021366077893671337
0.0022029503204669576
0.002270169181177204
0.002339204154992883
0.0024111018872739177
0.0024870119543847088
0.002568183394426182
0.0026559598672317854
0.0027517576853593314
0.002856818442882037
0.0029688220144780584
0.003034368470149121
0.00015670569892898463
0.00017170914414000983
0.00020228131218270724
0.00023927308206818943
0.00028211782070309725
0.0003307878500155844
0.00038521232177237135
0.0004452313366611237
0.0005105900826875247
0.00058093797352342
0.0006558307754172721
0.0007347359056718718
0.0008170410686670071
0.0009020662813592843
0.000989079559919617
0.0010773167745822272
0.0011660065999351387
0.0012544005276726765
0.0013418058599607282
0.0014276170881355964
0.0015113390754822366
0.0015925986358519546
0.0016711450581749878
0.001746845176621353
0.0018196805698010884
0.0018897490357031549
0.001957271249988525
0.002022596953309678
0.002086208883970929
0.0021487222793391725
0.002210881532010092
0.0022735555999701404
0.0023377337991342556
0.0024045227371030024
0.002475144507910858
0.0025509356630451737
0.00263334522101099
0.0027239163009218615
0.0028240482596624985
0.002931697944266443
0.0029950435938389656
0.0001462968635730394
0.00016143690624351005
0.00019253977692708252
0.00023050999514524282
0.0002747544148762026
0.0003252112504079296
0.0003817730616034228
0.00044424052481754163
0.0005123154616954709
0.0005855987163741543
0.0006635911985657594
0.000745698624990995
0.0008312404738272022
0.00091946351284809
0.0010095601156285196
0.0011006914376547662
0.0011920150943720957
0.0012827161624359813
0.0013720390796895228
0.001459316896102183
0.0015439943916065197
0.001625642848272293
0.001703966917717379
0.0017788062698935374
0.001850135214045486
0.0019180629492875317
0.0019828345987451387
0.0020448323807881323
0.0021045755829523726
0.0021627189562621143
0.002220049899383872
0.0022774855064124537
0.0023360704205005254
0.002396976182855422
0.002461502221805722
0.002531078111618109
0.0026072654267714425
0.0026917442186313203
0.0027860873267697324
0.002888570184991564
0.0029492804768881265
0.0001346228377455325
0.00014992012075901203
0.00018162925673236618
0.0002207105657746012
0.000266539050800314
0.00031901495281939484
0.00037799189875080804
0.00044322948783903654
0.0005143842960484563
0.0005910056559183357
0.0006725349588158205
0.0007583094297754658
0.0008475712156318038
0.0009394823113480287
0.0010331454203710317
0.0011276303360214371
0.0012220047680565037
0.0013153677725925397
0.0014068831867822033
0.0014958101251174368
0.001581527841003747
0.0016635534030551911
0.0017415521357676126
0.0018153421421237014
0.0018848949394858732
0.001950333943308434
0.002011932031386026
0.002070108431141988
0.0021254252595232525
0.0021785838269052274
0.002230421321834245
0.002281908602976302
0.0023341498364104446
0.0023883844490391413
0.002445991492276361
0.002508496050642421
0.002577576022889647
0.0026550548693328262
0.0027426911933140846
0.0028391204250319086
0.0028967131901830724
0.00012176734720177954
0.00013723329202612914
0.000169608856739511
0.00020991897374514752
0.000257501850485056
0.0003122169692074774
0.0003738785423082694
0.0004422056535757883
0.0005168098539469095
0.0005971875610474028
0.0006827165801433602
0.000772658188709249
0.000866166004035039
0.0009623023240423581
0.0010600618959407293
0.0011584022897814584
0.001256279193903914
0.0013526842108493576
0.0014466822079764372
0.0015374452327480202
0.0016242804292404928
0.001706650418641396
0.001784185772055664
0.001856690416134117
0.001924141452571333
0.0019866851516713944
0.0020446307154434007
0.0020984430148545973
0.0021487354005596225
0.002196263408951481
0.0022419202428917914
0.0022867348136250605
0.0023318729644334468
0.002378642246984723
0.002428500266291613
0.002483066145081007
0.0025441334498810682
0.0026136707912480127
0.002693630178897884
0.0027830470753911394
0.0028369920345508864
0.00010787602996615316
0.00012350486065056856
0.000156577044150721
0.00019820349967663266
0.0002476819293081827
0.00030483010755296005
0.0003694251268982109
0.00044114924491404884
0.0005195720894622704
0.000604137820617736
0.0006941573292333242
0.0007888075688782684
0.0008871397562906173
0.0009880973416237988
0.0010905436016273018
0.001193297558438286
0.001295175854456525
0.001395037385829015
0.0014918270616209742
0.001584615167590055
0.001672629438518922
0.0017552780726240425
0.0018321631275813011
0.0019030850394576998
0.0019680397947996575
0.0020272108431352892
0.002080957925559496
0.0021298047524250852
0.0021744273968725986
0.0022156447293062796
0.002254412186648436
0.0022918197262566374
0.002329094629997684
0.0023676094544698278
0.0024088950596002565
0.0024546581922637953
0.002506801936606031
0.0025674359023062955
0.0026387072260347783
0.0027200885971359347
0.002769809825907412
9.317213490712447e-05
0.00010892998594310602
0.0001426790444300204
0.00018565835171925382
0.00023712378342373276
0.0002968533458109666
0.0003645932448559831
0.0004399969715826728
0.0005225993416304431
0.0006117957875599609
0.0007068280098350355
0.0008067790468754653
0.0009105802542276085
0.001017031418281991
0.0011248337154143352
0.0012326336320797075
0.0013390744960836167
0.0014428512429856108
0.0015427636234811946
0.001637763286641672
0.0017269911838258384
0.0018098030771325248
0.0018857826197223057
0.001954742922543658
0.00201671872699595
0.0020719519275497907
0.0021208734626642148
0.002164084402740419
0.0022023386873588863
0.002236529530129063
0.0022676809517027446
0.002296945510132762
0.0023256088419628933
0.002355101287892162
0.0023870164879794997
0.0024231363801283505
0.002465460750480754
0.002516229071883415
0.002577778121334178
0.002650050495036806
0.0026949327009140544
7.797144227977387e-05
9.378215788219688e-05
0.00012811241266903235
0.0001724030175264924
0.00022587071212524162
0.0002882597025641152
0.00035929695118573976
0.00043862128269079855
0.0005257454686374187
0.0006200238757686564
0.0007206282925566452
0.000826536623769761
0.0009365379541141218
0.00104925567233688
0.0011631882157143853
0.0012767646397694248
0.0013884102687669686
0.0014966161969035042
0.0016000059513586649
0.001697393171243151
0.0017878255776939275
0.001870612583943751
0.0019453361699539025
0.002011846655193034
0.0020702465078008716
0.0021208662451470575
0.0021642365310527347
0.002201060444826505
0.002232189059392758
0.0022586028824389975
0.0022814007923402635
0.0023017975964804856
0.002321130697907839
0.0023408760741617887
0.0023626734424778504
0.0023883601260070936
0.002420011927921099
0.0024599787439682635
0.0025107736694255007
0.0025728354401916074
0.002612234770671527
6.269385596369206e-05
7.842136732258552e-05
0.0001131290054746574
0.0001585783094190137
0.0002139550173709019
0.0002789807464951741
0.0003533818658505199
0.0004368050950995789
0.0005287622687472623
0.0006285803199131496
0.000735362703107549
0.0008479687919178308
0.000965016094380989
0.0010849077359939292
0.0012058845311870882
0.0013260976706211446
0.001443695001067155
0.0015569118554767786
0.0016641567896142169
0.001764083531523128
0.0018556428244281414
0.0019381110374106173
0.0020110957453808127
0.002074521300578516
0.002128599510320946
0.0021737912534404258
0.0022107650401175516
0.002240357619705914
0.0022635406843009333
0.0022813965252194636
0.0022951043374935197
0.0023059380278811006
0.0023152757796873744
0.0023246212737462347
0.0023356364062575652
0.0023501853376885523
0.0023703889511632816
0.002398679326857584
0.0024377230514686606
0.002488475534150243
0.0025217363829153367
4.786705089289938e-05
6.329517794969236e-05
9.803164387809647e-05
0.0001443385290116561
0.00020138613100229087
0.00026888891200878355
0.0003466008019965072
0.0004342124789226471
0.0005312678283345601
0.0006370883731822708
0.0007507142307431534
0.0008708700851990505
0.000995963117953377
0.0011241166516912887
0.001253238765796392
0.0013811201544021898
0.001505550767207662
0.0016244417008077566
0.001735937950060408
0.001838509515056643
0.0019310122146506004
0.002012714778841396
0.0020832938368521136
0.0021428024972571457
0.0021916207296920607
0.0022303964395643536
0.002259985498665064
0.002281397512050192
0.0022957519661591804
0.0023042478082156816
0.002308147675916271
0.0023087771320521237
0.00230753846872965
0.00230593850708921
0.002305629897214811
0.0023084658252962853
0.002316569007306516
0.002332408871287316
0.0023587800658479334
0.0023971646723219154
0.0024236404271912875
3.411909850673624e-05
4.892871625318636e-05
8.316211215015838e-05
0.00012984390988109585
0.00018813996275217717
0.0002577774298057256
0.0003385868675168327
0.00043035733302356947
0.00053271322391148
0.0006450043247352839
0.0007662178408150002
0.0008949246756557638
0.001029270406048262
0.0011670171800818082
0.001305636403428661
0.0014424438103639177
0.001574761275108171
0.0017000843468093561
0.0018162336618289129
0.0019214715559983447
0.0020145721673959474
0.0020948418081505648
0.0021620942959605363
0.002216591801134238
0.002258964528983348
0.0022901226470481086
0.0023111718438796683
0.0023233408788241434
0.002327926255459986
0.0023262563840558783
0.0023196755497768033
0.0023095468011670654
0.002297272304495734
0.0022843297473800488
0.0022723236983380126
0.0022630516120517785
0.0022585844886741837
0.0022613645068995675
0.002274245107513059
0.0022992922013421453
0.0023183809666175127
2.2137290790788894e-05
3.5894641194391675e-05
6.889810043565162e-05
0.00011525942259551914
0.0001741398087632457
0.0002453365985362336
0.0003288283847157347
0.00042457614668906137
0.000532353581690779
0.0006515893878247665
0.0007812380058405332
0.0009196957638479747
0.001064779470992018
0.0012137786482504808
0.0013635828472866633
0.001510872356358472
0.0016523480282542844
0.0017849670330353663
0.00190615012173953
0.0020139319755747512
0.0021070388542191493
0.002184891929784153
0.002247547553547682
0.0022955934403838226
0.0023300226431728203
0.00235210510644757
0.002363272015920439
0.0023650226134487107
0.0023588580099501103
0.0023462426448081406
0.002328591624248068
0.0023072810223540895
0.0022836782969276894
0.0022591901424181492
0.0022353263669417996
0.0022137786902898713
0.002196515043360803
0.002185881104228286
0.002184688067216329
0.002195453734479401
0.0022065839196096053
1.2715333882309957e-05
2.4823445028590418e-05
5.564668251029803e-05
0.00010072000630180265
0.00015924651040764054
0.0002311691618755987
0.00031669453622394856
0.00041605553019093285
0.0005292727038215296
0.0006559316725453606
0.0007949925370365248
0.0009446587648884502
0.0011023326714551546
0.0012646787119190196
0.0014278002778205263
0.0015875143610455207
0.001739685640611091
0.0018805662807947923
0.002007084998712146
0.002117041514219198
0.002209185069262366
0.002283181032683402
0.002339489573793348
0.002379190968449358
0.0024037925016832788
0.002415045900625681
0.0024147942734284947
0.0024048581210147696
0.002386962257347746
0.002362700557441235
0.0023335330450571187
0.0023008094238313576
0.002265814003516914
0.0022298284714334106
0.0021942107251007215
0.0021604895467999606
0.0021304750581905667
0.0021063883108691536
0.0020909274123402525
0.002086988034402622
0.0020896129559738992
0.00014708616950414265
0.0002194250761374393
0.0004099213479390461
0.0008136361692862161
0.0009760294904242519
0.0013252860856749833
0.0015030633994551157
0.0018390448422921839
0.001987577754984777
0.002228270186648763
0.002317077918136127
0.0023846453488991838
0.0024320543895600994
0.0024610640074874146
0.002473834006889204
0.002472683341173042
0.0022430093529488457
0.0021966155169226014
0.0020278195082492397
0.001999296344450356
0.0019761960267053193
6.761937436116234e-06
1.7400495561956965e-05
4.587151887458563e-05
8.928190393165436e-05
0.0003068365481863208
0.0005290287963213852
0.0006639476381215584
0.001147968443707013
0.0016760296194331373
0.0021180908244929054
0.002459903542932074
0.0024376330756341676
0.0024077885491284134
0.0023720434692261253
0.002331844019926311
0.0022884522103584835
0.0021504235796252617
0.002105748882627754
0.0020641985261237814
0.0019817016207277294
4.181664135145065e-06
1.303359240949485e-05
3.871193390448613e-05
7.98004742737078e-05
0.00013574899260400264
0.00020686491784055135
0.00029393095147533464
0.0003978569314409933
0.0005193005223010008
0.0006582971181708569
0.0008139213917051408
0.0009840323270898623
0.0011651608664781181
0.0013525933106362886
0.0015406734872752158
0.0017232973310056063
0.0018945195575930816
0.0020491549080417963
0.00218325490125083
0.002294376222843927
0.002381615805878783
0.0024454440192524696
0.002487404634978634
0.0025097598500544113
0.002515147506474394
0.0025062945031295086
0.002485807063357167
0.0024560395370602783
0.002419031954970081
0.0023765017185813594
0.0023298744363935975
0.0022803418783206284
0.002228938184498669
0.002176629817817122
0.0021244179323632044
0.002073454596329572
0.002025178181539602
0.0019814683443499246
0.001944838705313738
0.0019184554841149835
0.0019079023753654678
2.9868331432516526e-06
1.0136690535056544e-05
3.313211837025749e-05
7.192804597113183e-05
0.0001260287865088825
0.00019589238973858223
0.0002825807710312946
0.00038734285453570955
0.00051118163330061
0.0006544123111326681
0.0008162470654633594
0.0009944657413278417