# vtk DataFile Version 2.0
time_10.vtk
ASCII
DATASET UNSTRUCTURED_GRID
POINTS   4141  float 
5.2506825529993176e-05        -5.830679523299889e-18        0.0                           
0.25000000000000056           4.976700853190706e-05         0.0                           
0.5000482304211356            -4.776299756628045e-17        0.0                           
0.75                          4.4772316678731575e-05        0.0                           
1.0000428336735498            4.09835062287662e-18          0.0                           
1.2499999999999996            3.850473404241737e-05         0.0                           
1.500036105903705             1.7845325319212615e-17        0.0                           
1.75                          3.082966985338711e-05         0.0                           
2.0000279528901284            -1.1637195005755661e-17       0.0                           
2.2500000000000013            2.1734702016981838e-05        0.0                           
2.500018402841786             -9.557572305529009e-18        0.0                           
2.7500000000000004            1.1331131884351317e-05        0.0                           
3.0000076167178737            1.0129648646806394e-16        0.0                           
3.25                          -1.008198303694757e-16        0.0                           
3.499995679736498             -2.914015431965043e-15        0.0                           
3.75                          -1.302917616932812e-05        0.0                           
3.9999825228768637            8.836617117708149e-17         0.0                           
4.25                          -2.658090183425435e-05        0.0                           
4.4999687685420025            9.799016486179792e-17         0.0                           
4.75                          -4.071587517808487e-05        0.0                           
4.9999544536095035            2.88003489738424e-17          0.0                           
5.25                          -5.538425107073014e-05        0.0                           
5.499939604388894             2.1066283609245825e-16        0.0                           
5.75                          -7.062370543093086e-05        0.0                           
5.999924147142374             -1.1848183378098353e-17       0.0                           
6.25                          -8.65824463295178e-05         0.0                           
6.499907897042021             8.265169516108171e-16         0.0                           
6.75                          5.235286088311344e-05         0.0                           
7.000051036737306             3.81839082425127e-06          0.0                           
7.250004103094954             4.8081757306974925e-05        0.0                           
7.5000464210649405            4.722602966575076e-06         0.0                           
7.750005054037885             4.268704528354577e-05         0.0                           
8.00004059920422              5.750400279100651e-06         0.0                           
8.250006111038449             3.595661370881054e-05         0.0                           
8.500033396348327             6.846235047573405e-06         0.0                           
8.75000721645972              2.7795517773686845e-05        0.0                           
9.00002475843436              7.951875034560382e-06         0.0                           
9.250008313256489             1.8230021002094144e-05        0.0                           
9.500014750147622             9.014588297895517e-06         0.0                           
9.750009351123525             7.393398327764928e-06         0.0                           
10.000003520364643            9.988562570733548e-06         0.0                           
1.0346640898520858e-05        0.2999953699196943            0.0                           
0.24999110832983495           0.30001097683321226           0.0                           
0.5000112524911189            0.29998230461040437           0.0                           
0.749977787105689             0.3000117845909639            0.0                           
1.0000120419233505            0.29996854757697167           0.0                           
1.249963833186647             0.3000125440770565            0.0                           
1.500012791837382             0.2999542271618928            0.0                           
1.7499493369023469            0.30001328957920864           0.0                           
2.0000135434972868            0.29993937547934585           0.0                           
2.2499342975579952            0.3000140717676803            0.0                           
2.5000143502912295            0.2999239197131219            0.0                           
2.749918604595539             0.300014946147093             0.0                           
3.0000152671571234            0.2999076744598347            0.0                           
3.249902037142707             0.3000159632541007            0.0                           
3.5000070927840565            0.3000505806210141            0.0                           
3.75004916615471              0.3000081962063723            0.0                           
4.000008801294621             0.3000459783734635            0.0                           
4.250044184906666             0.3000101024311081            0.0                           
4.500010790799007             0.3000401583429187            0.0                           
4.750037913448073             0.30001222194832633           0.0                           
5.000012955893435             0.3000329424981344            0.0                           
5.250030213890929             0.30001443859387117           0.0                           
5.500015178960586             0.30002427502808              0.0                           
5.750021070601405             0.3000166385081165            0.0                           
6.000017350982723             0.3000142139223434            0.0                           
6.250010571680506             0.3000187287601113            0.0                           
6.500019393109145             0.3000028749948462            0.0                           
6.749998843132943             0.3000207060577906            0.0                           
7.0000213386116865            0.29999044992225127           0.0                           
7.249986099252996             0.3000225018565756            0.0                           
7.500023046049203             0.2999771373635663            0.0                           
7.7499725446497045            0.3000240895447287            0.0                           
8.00002459466223              0.2999631649364123            0.0                           
8.249958385191194             0.3000255870504578            0.0                           
8.500026081381618             0.2999486541038702            0.0                           
8.749943701904643             0.30002708583239474           0.0                           
9.00002760424403              0.29993361121041656           0.0                           
9.249928463101476             0.3000286945419902            0.0                           
9.50002927469728              0.2999179264640238            0.0                           
9.7499125198708               0.3000305242803368            0.0                           
10.000031200488715            0.29990137592601407           0.0                           
5.111968949443682e-05         0.6000106100313587            0.0                           
0.250011411166136             0.6000484144439656            0.0                           
0.5000468916193687            0.6000131798570785            0.0                           
0.7500141384687536            0.6000434503285956            0.0                           
1.0000415137175607            0.600016176275518             0.0                           
1.2500172428388128            0.6000371744331923            0.0                           
1.5000347628311377            0.6000194380192515            0.0                           
1.7500205532490118            0.6000294452371578            0.0                           
2.0000265396039105            0.6000227868202872            0.0                           
2.2500238933032866            0.6000202457086289            0.0                           
2.500016865190407             0.6000260600628909            0.0                           
2.7500271125411717            0.6000096615128027            0.0                           
3.000005849491819             0.6000291477160775            0.0                           
3.2500301314532885            0.599997849499043             0.0                           
3.4999936826185944            0.6000320183267436            0.0                           
3.750032908826185             0.5999850490938275            0.0                           
3.999980595967345             0.6000345829684066            0.0                           
4.250035377085097             0.5999714570903895            0.0                           
4.499966785601674             0.6000369058686287            0.0                           
4.750037650420257             0.5999572630932786            0.0                           
4.999952417538306             0.6000391266482452            0.0                           
5.250039870054471             0.5999425604764203            0.0                           
5.49993754550019              0.6000413986606175            0.0                           
5.750042196727384             0.5999273224235816            0.0                           
5.999922101631444             0.6000438922520211            0.0                           
6.250044801841162             0.5999113988212526            0.0                           
[...]
POINT_DATA  4141
SCALARS Con float 1
LOOKUP_TABLE default
0.0004067445686288199
0.0004400836028445477
0.0005057961139473547
0.000582688052334758
0.000669685628892926
0.0007670599852731294
0.0008750214682595109
0.0009936058860109261
0.0011226569032102027
0.0012618222651243254
0.0014105577537007093
0.0015681379576402872
0.0017336726199705156
0.0019061263482017183
0.002084338042322682
0.0022670335864015353
0.0024528287710141204
0.0026402176297314413
0.002827948951944064
0.0030182365454016055
0.0032345363300968002
0.00345180184098289
0.0036455842330331443
0.0038299585445947023
0.004014767785554579
0.0041994126222125215
0.004384103958053419
0.004569282059733787
0.004755730661749886
0.0049445118067810755
0.005136931470638168
0.005334510146735418
0.005538958113091536
0.005752152479218899
0.005976114552249996
0.006212986253965187
0.0064650020627407155
0.0067344181491285175
0.007022881020710233
0.007322711640094163
0.007495487051645465
0.00041313936274476253
0.00044726386172520567
0.0005143098387600925
0.0005926463773204981
0.0006812023876658271
0.0007802218759311979
0.0008898877464368875
0.0010102066759178402
0.0011409929463735387
0.0012818660307320122
0.0014322562280159664
0.0015914177207444996
0.0017584485245519205
0.001932316855728717
0.0021118943079564386
0.002296001877250843
0.00248348514214892
0.0026734597311189666
0.002865761429029301
0.0030655325282050155
0.0032683224860994425
0.003468136237480665
0.003662309392738129
0.0038532607503399866
0.004040511190683683
0.004226325199346753
0.0044114895801307605
0.004596845999414447
0.004783367124742985
0.00497222875042269
0.005164812928852039
0.005362698115257425
0.0055676429358871805
0.005781567309435581
0.006006531819241357
0.0062447150119467705
0.006498385512061517
0.00676983180005199
0.007060719554221231
0.007363492140506515
0.007538165081106291
0.0004094761561740166
0.0004435741619493123
0.0005107419540397895
0.0005893943307704755
0.0006784367768874224
0.0007781047866979999
0.0008885688924285669
0.0010098223145271652
0.0011416656329759451
0.0012837057395376705
0.0014353635446828848
0.0015958905506482162
0.0017643951638333542
0.0019398809549523231
0.0021213030230986573
0.002307655396508713
0.0024981354107307912
0.0026923407540192586
0.0028910989998902677
0.0030889471580749306
0.0032777467081970377
0.0034665605293645574
0.003662407146689947
0.0038560567468693303
0.004046139590804056
0.004233308702402874
0.00441883729645949
0.004603835361358138
0.004789475045624105
0.004977056382592236
0.005168046023108522
0.005364086114718301
0.005566989733675463
0.005778728844529676
0.0060014178488404174
0.0062372936037713165
0.006488689342190604
0.006757964601374564
0.007046869745283309
0.0073478738316774235
0.007521575795648181
0.0004031195634720818
0.0004372497874399384
0.0005046477184875155
0.0005838210200277901
0.0006736704090021393
0.0007744134543793338
0.0008861997619726233
0.001008999050815898
0.0011425871661982193
0.0012865464040699407
0.0014402749795091605
0.0016030059832727514
0.0017738367625988946
0.0019517702185761997
0.002135769226385431
0.0023248245266468473
0.0025179927490868075
0.0027143838381529215
0.00291157533288081
0.003106312308157684
0.00329839507085074
0.0034890018617220533
0.0036797440895997556
0.0038712195774813947
0.004060674833483386
0.00424754215311994
0.004432330752826033
0.0046160210703330125
0.004799791082311211
0.00498499585052312
0.005173166544971719
0.005366012251489334
0.005565415578897373
0.00577342303173319
0.005992231148386479
0.00622416878209033
0.006471672714151157
0.006737219037142567
0.007022686516069311
0.007320749704923523
0.007493016942890225
0.00039413656031431167
0.00042831401158235005
0.0004960527741119548
0.0005759754001439974
0.0006669726527042718
0.0007692373199287216
0.0008828882455159164
0.0010078603961195093
0.0011438918597282551
0.001290524957986449
0.0014471161788725633
0.0016128548984323846
0.0017867906858204787
0.0019678675457961265
0.0021549599269263652
0.0023468910272503446
0.002542404557268178
0.002739877926386708
0.002937411852147625
0.0031334359309721027
0.0033270852734781863
0.00351880811943599
0.0037092901291330073
0.003898362616463685
0.004085659959354339
0.004270579513199698
0.004453267274882099
0.004634425170567925
0.004815126180344716
0.004996706913434765
0.005180727977491247
0.005368954466721328
0.005563343196047745
0.005766030391190242
0.005979317914764571
0.006205656687985585
0.006447623791249604
0.006707855390265089
0.006988417483318761
0.0072822792356345
0.007452485353308
0.000382451178996546
0.0004167035778688196
0.00048490624825285
0.0005658202507270391
0.0006583209660840765
0.0007625675408609667
0.0008786378142598755
0.0010064200871467924
0.0011456007522544628
0.0012956654025247703
0.0014559079763567216
0.001625447426509822
0.0018032506724295141
0.0019881586226143536
0.00217890776475776
0.0023741365432483658
0.002572348155466365
0.002771932089913863
0.00297128999718402
0.0031690759163308276
0.0033645328909534377
0.0035574128784217666
0.003747728962764368
0.0039354820656940384
0.004120465852987621
0.0043026080549910615
0.0044820906283926775
0.004659523973003353
0.004835900336364871
0.005012529141969745
0.005190988326920556
0.0053730946848045864
0.00556088385002598
0.005756594640751527
0.005962654500936168
0.006181663797813305
0.006416374686784147
0.006669626854936717
0.006943728794537243
0.00723203167169664
0.007399492800709625
0.00036798996485643026
0.0004023514956657832
0.00047115608323023594
0.0005533198709217015
0.0006476962290751429
0.000754401356364591
0.0008734616274733048
0.001004706921804163
0.0011477583686085192
0.0013020287823755194
0.0014667303536282338
0.0016408889585812908
0.0018233638202935973
0.002012869801208029
0.0022079986339226584
0.0024072348336317364
0.0026089839748805266
0.002811630651743146
0.0030136522867037895
0.003213779045529356
0.003411093930084836
0.00360505243488959
0.00379537215433934
0.003981895835638307
0.004164568563591934
0.004343463065863503
0.004518908514692981
0.004691549591858798
0.004862376693395777
0.005032705132626422
0.005204144875995198
0.0053785736823135375
0.005558116411951701
0.005745128725520413
0.005942183064007608
0.0061520546978659565
0.006377703364301238
0.00662221308857149
0.0068881857549832675
0.007169444440559293
0.007333404682595638
0.00035069239042213765
0.0003852035036542851
0.0004547611993675861
0.0005384487120990114
0.0006350892183332325
0.0007447462805370608
0.0008673847649889095
0.0010027653662884701
0.0011504318680780692
0.0013097103402817767
0.0014797151095184851
0.0016593612599317769
0.0018473830916907706
0.002042357514681239
0.002242731539008082
0.0024468572279402775
0.0026530398886260654
0.002859609288084529
0.0030650137625787615
0.003267915976212707
0.003467265520359304
0.0036623131345753213
0.0038525786931871532
0.004037805914710445
0.004217934170664924
0.004393121885451776
0.0045637839474602345
0.004730637663121613
0.004894721835796166
0.005057397116109991
0.005220331413869043
0.005385481786139227
0.005555077848371552
0.005731608162576952
0.005917808996066378
0.006116653865711009
0.006331339518529763
0.006565231365081708
0.006821273291253824
0.00709385672770065
0.007253473857602606
0.00033052981263501216
0.0003652341473086158
0.0004357045281668026
0.0005212006484809718
0.0006205059899433828
0.0007336217488060699
0.0008604422749961386
0.0010006501222723256
0.0011537019744574193
0.001318825861126191
0.001495025097166522
0.0016810893868820273
0.0018756135137083926
0.002077023864264365
0.002283613683334256
0.002493588747287702
0.0027051261874824193
0.0029164468088085983
0.0031258955847681884
0.003332018785865136
0.003533620677783437
0.003729791383681109
0.003919907184435558
0.004103617659405201
0.004280839031707722
0.004451759230197732
0.004616857042736658
0.004776920738191038
0.004933060985661253
0.005086712033898256
0.00523962483564525
0.00539385605440133
0.005551757151765953
0.005715965590284962
0.005889398502260395
0.006075247755807058
0.006276972320778892
0.00649825172029935
0.006742417430205198
0.007004529288513249
0.007158860679888484
0.00030752766775205275
0.00034246654594277936
0.00041400789736528487
0.0005015987249382922
0.0006039723483510446
0.0007210583517038916
0.0008526733825871074
0.000998415592422192
0.0011576478523124681
0.0013294917773055462
0.0015128288172553404
0.0017063097216338103
0.0019083737030605005
0.002117278342428551
0.002331141047718572
0.0025479926056044284
0.002765842322684608
0.0029827520705496724
0.003196913339690266
0.0034067183736521942
0.003610816687665265
0.0038081513756548476
0.003997976379574222
0.004179861448591501
0.004353692774947865
0.004519675951387704
0.004678341363581777
0.004830550361419953
0.0049774981285662665
0.005120712169343816
0.005262046832636894
0.005403676512438722
0.005548089836387779
0.0056980866482570025
0.005856778222346615
0.006027589909551136
0.006214262298603159
0.006420815663969292
0.006651009342227922
0.006900673894376092
0.007048665201120562
0.000281791845206638
0.00031699531937418875
0.00038974862653850205
0.00047970493340420214
0.0005855366982250409
0.0007070939215686656
0.0008441112713438706
0.000996100038836544
0.0011623264951486146
0.0013418007341429211
0.0015332733202702983
0.0017352420635442115
0.001945971078261187
0.002163523600888459
0.002385809118753376
0.0026106441568096465
0.002835824457676038
0.003059204303847913
0.0032787767552055957
0.003492747598984831
0.0036995963625413826
0.003898120531252286
0.004087462780185241
0.004267124363986911
0.004436969583410365
0.004597225395708743
0.004748478925199949
0.004891673346129861
0.005028102407769822
0.005159403719895689
0.005287552041589416
0.005414854230220028
0.0055439476761023395
0.005677803423017321
0.005819734285464854
0.005973407155101197
0.006142855595356688
0.006332458768716527
0.006546436220945152
0.006781491625043772
0.006921969292342182
0.00025353890854143
0.00028901242731049954
0.00036307718710723103
0.0004556291995553739
0.0005652703200282847
0.0006917654697810662
0.0008347674633341213
0.0009937036269302357
0.0011677460529262741
0.001355792210431372
0.00155645460177961
0.0017680629890392114
0.0019886822856856326
0.002216148026454953
0.0024481196935565125
0.002682150308671805
0.0029157686334120854
0.003146568430249079
0.003372297860407785
0.0035909418034805094
0.0038007908761817344
0.004000493248641798
0.004189088201881048
0.004366023186796786
0.004531157706027754
0.004684758038985019
0.0048274862994980424
0.004960386637853999
0.005084870815196698
0.0052027051168602925
0.005316000505393282
0.005427207963857937
0.00553912049823511
0.005654882808382131
0.005778008701989277
0.005912405257262609
0.00606239982327796
0.006232737312053981
0.006428118863496238
0.006646220838161073
0.0067778901192444615
0.0002231293268519208
0.0002588348969910402
0.000334234817031688
0.0004295363441748461
0.0005432637861884293
0.0006750956508661448
0.0008246095042649279
0.000991159078706149
0.0011738317829012703
0.0013714166646324555
0.0015823833118986375
0.0018048768008638641
0.0020367330399440873
0.002275517028807418
0.0025185841482618086
0.002763161914535336
0.003006447036338767
0.0032457105172496083
0.0034784023489142367
0.003702247404766561
0.003915325480468289
0.004116130920868135
0.004303610158438858
0.004477178403543891
0.004636718793332138
0.004782568539413825
0.004915496947873368
0.005036679833513853
0.005147674463139386
0.005250398365750596
0.0053471149778450446
0.00544042832498272
0.005533288411776166
0.005629008138536969
0.005731291668838338
0.005844273021054631
0.00597256087310012
0.0061212585144635985
0.006295555819255586
0.006494194905180978
0.006615645202737894
0.00019110159443778182
0.00022693243878506723
0.0003035691717597428
0.00040164930686909054
0.0005196179820798276
0.0006570724140773154
0.000813530648318091
0.0009882935436767962
0.001180383080724563
0.0013884914333714712
0.0016109437094369739
0.0018456817427992545
0.0020902751400887483
0.0023419630055826353
0.0025977263252283194
0.002854387253230081
0.0031087280643347474
0.0033576199124372196
0.0035981502780112096
0.0038277382985612246
0.0040442291781392905
0.004245961925852206
0.00443180842680648
0.004601185326695673
0.004754043065698219
0.004890838106763622
0.005012495142492398
0.005120365901553874
0.005216190367811192
0.005302065366688145
0.005380424157575441
0.005454029881718125
0.005525984477149881
0.005599753926333176
0.005679209655540917
0.005768684737952091
0.005873040441726356
0.005997713986327314
0.006148373553944616
0.006324909340618888
0.006434629053227723
0.0001582033630723579
0.00019395143050101598
0.00027154522399542365
0.0003722465170316114
0.0004944284387102923
0.0006376209866114509
0.0008013108264974285
0.000984780857590457
0.0011870205608054032
0.001406647277926013
0.0016418448761911122
0.0018903309635145945
0.002149361355810748
0.002415776563013354
0.0026860901843752676
0.002956613741115057
0.003223607697043729
0.0034834447429400632
0.003732769890170008
0.003968642703022169
0.0041886499335321535
0.004390981348546751
0.004574466710623955
0.004738576672459841
0.0048833941024445954
0.0050095647112834134
0.005118236502874318
0.005210997327974084
0.005289818337783037
0.00535700964039085
0.005415192613667805
0.005467291818930916
0.005516548149775749
0.005566553885540688
0.005621309510758432
0.005685301161608831
0.005763594517827072
0.005861915762962575
0.005986381624482362
0.006138097069412932
0.006234499895773008
0.00012541340577295061
0.00016072980668936087
0.00023874735352985641
0.0003416516178696118
0.0004677626656453665
0.0006165688612668317
0.0007875695732436432
0.0009800844009475657
0.0011931232133655938
0.001425265648845337
0.0016745646313364663
0.001938489504905882
0.002213920804823242
0.002497203508583628
0.0027842586726333097
0.003070745700310801
0.003352260278965338
0.003624547797829188
0.003883709948768331
0.004126383705442145
0.004349876683548829
0.004552249869729516
0.00473234639313747
0.004889771849074787
0.005024836831752734
0.005138474894452414
0.005232149779682731
0.005307764357296854
0.005367581437764091
0.0054141638976116
0.005450338952356184
0.005479189173666145
0.005504071410434484
0.0055286636675612255
0.005557039704883134
0.005593771037254048
0.005644053971846689
0.005713836616548591
0.005809630932348569
0.005933809295048841
0.006015275653230326
9.394356292515299e-05
0.00012829442287738178
0.00020586874417450108
0.0003102145559156472
0.0004396335326165319
0.0005936070354036648
0.0007717126142290197
0.0009733923470832889
0.001197757724930216
0.0014434089393700548
0.001708288674506671
0.001989590559392221
0.0022837394759816754
0.0025864540981705396
0.002892892225801759
0.0031978679800602795
0.0034961187609402035
0.0037825918365752415
0.004052717327847271
0.00430263730781447
0.0045293687391984834
0.0047308893547428205
0.004906147405307671
0.0050550062430556545
0.0051781413685674715
0.005276910270839725
0.005353214743194699
0.005409372409868649
0.0054480097919352
0.005471985166886274
0.005484345418818355
0.005488318471617543
0.005487340963784265
0.005485120079472185
0.0054857285132547395
0.0054937323112215
0.005514353609694192
0.005553653696571001
0.0056184791339831406
0.005712496915763409
0.00577742584659846
6.521296691420164e-05
9.78314972157535e-05
0.00017368105406193832
0.0002782937550563528
0.0004099767270702161
0.0005682478759109165
0.0007528750336814747
0.0009635507524324166
0.001199606215534458
0.0014597497311762855
0.0017418505379701143
0.002042796717256577
0.002358452695741067
0.0026837334016904715
0.00301279805103369
0.0033393482635064257
0.0036569975568863967
0.003959665825718057
0.004241948029880004
0.00449941161355682
0.004728791402840538
0.004928069667866263
0.005096447768309798
0.005234230590244939
0.005342653212985405
0.005423681039873799
0.0054798112573019595
0.005513897139315266
0.00552900941009489
0.005528342189823274
0.005515165860089476
0.005492825822064276
0.005464784340554984
0.0054347023518902604
0.005406558584928948
0.005384805080934838
0.005374558906738285
0.005381835665421391
0.005413646775207964
0.005475095355520956
0.005521992947920328
4.074483494480123e-05
7.061233482928728e-05
0.00014302343874781248
0.00024625342733646015
0.0003786114976854802
0.0005397777031453011
0.0007298719612670534
0.0009490094109233921
0.001196907172537216
0.0014725115035086498
0.0017736824082550068
0.002096975084181439
0.0024375590225774943
0.0027893044303288254
0.0031450447287575418
0.0034969948250518764
0.003837274842535752
0.004158466299575813
0.004454120463659179
0.004719148954605405
0.004950052440013198
0.005144975603987666
0.005303607249091941
0.00542696535407995
0.005517116498065903
0.005576877109541103
0.005609535052519493
0.005618617815684753
0.005607721389764307
0.0055804042014025
0.0055401438942354105
0.005490351221637715
0.00543443461804692
0.005375909296072504
0.005318546983256395
0.00526656334249212
0.0052248438198907055
0.005199187886451565
0.005196520609405893
0.005223056820561327
0.0052505048197243045
2.2249699428797882e-05
4.7996798976552446e-05
0.00011478256250350469
0.00021438703735367036
0.0003452258953629969
0.0005073026836436965
0.0007012712292902711
0.0009279012711967957
0.0011875294293747652
0.001479536279346666
0.001801885435166892
0.002150786691596703
0.002520547563060918
0.002903667172572789
0.003291194755294372
0.0036733278485401866
0.004040172113072217
0.004382544734031865
0.004692689966139971
0.00496479660581073
0.005195254566220441
0.005382645602308604
0.005527512899173619
0.005631984248938833
0.005699330368843879
0.005733529803402366
0.00573889093985753
0.005719759825669338
0.00568032323880423
0.005624503433964453
0.0055559336675171725
0.005478001358272173
0.005393946897779369
0.005307009124821011
0.005220612452539837
0.0051385944858883745
0.0050654730276306565
0.0050067600999839645
0.004969122722339069
0.0049596938665142825
0.004966324255678405
0.0003178694705775351
0.00048015794887527516
0.0009119525587512465
0.0018407611881977692
0.0022187477241977322
0.0030400001971853355
0.0034626630804503633
0.004271382017336987
0.004633919628289196
0.005230690354907504
0.0054553125374862755
0.005629181670375009
0.005754214545895813
0.005834109903914404
0.0058737007289353
0.005878364020820908
0.005341467527266243
0.005228716158296183
0.004816515176002912
0.004746840223191624
0.004690738373058116
1.1270390156166425e-05
3.3319505735449284e-05
9.414489682597093e-05
0.00018934861429868328
0.0006776360092324081
0.0011842627495170495
0.00149450675463998
0.0026216030372432342
0.0038772359296951222
0.004955789255180539
0.005853546770713577
0.005804431380334499
0.005735737824839509
0.0056516446359202365
0.005555805372249351
0.005451437723201089
0.0051161266008843955
0.005007029739101856
0.004905459637770483
0.004704005941957111
7.245984018839729e-06
2.501341044700705e-05
7.911184275339513e-05
0.00016863926810237084
0.00029250409130401363
0.000451513820318166
0.0006476477159335675
0.0008832771015298578
0.00116030150492972
0.0014792897308492474
0.0018386724745937581
0.0022341002494100843
0.002658103001066213
0.0031001823037059726
0.003547408151785119
0.003985486000981066
0.004400134415090418
0.004778516240776705
0.0051104428599484785
0.005389133822136367
0.005611439963188499
0.0057775718512502
0.005890473641283243
0.005955020306906129
0.0059772022692857795
0.005963414560268874
0.005919913712621492
0.005852458427562036
0.005766118967319076
0.005665224522482774
0.005553414127170197
0.005433761310352941
0.00530895004051063
0.00518148899043222
0.00505395954731494
0.004929299670438045
0.004811135531438662
0.004704161167742187
0.004614607022243901
0.004550277721180444
0.004524666171067497
6.033527142308432e-06
1.9776800455603525e-05
6.748716782556905e-05
0.00015147464648578843
0.0002707556210856444
0.00042646115900067774
0.0006212021874271703
0.0008581396370121744
0.0011400020717002672
0.0014680666753141768
0.0018411754272032463
0.002254914719055377
0.0027011395727342545
0.00316802521575509
0.00364076047594341
0.004102856225157618
0.004537866046725318
0.004931175446841593
0.0052714804475894874
0.005551668847027045
0.005768997406856201
0.0059246454832791295
0.006022851368817668
0.006069874969132816
0.006072995608691156
0.006039681384711721
0.0059769906459609615
0.005891207525792037
0.005787678060906816