# vtk DataFile Version 2.0
time_10.vtk
ASCII
DATASET UNSTRUCTURED_GRID
POINTS   4141  float 
9.929684230587334e-05         -4.311985395376498e-17        0.0                           
0.2500000000000009            9.437386116671555e-05         0.0                           
0.5000915743112805            -1.1149969123297158e-17       0.0                           
0.75                          8.520309155885886e-05         0.0                           
1.00008159957664              -2.4014589528551893e-17       0.0                           
1.25                          7.349643636186623e-05         0.0                           
1.5000689809897385            -1.572582218249339e-17        0.0                           
1.75                          5.9004123939075135e-05        0.0                           
2.0000535438776583            -2.6486790128925925e-17       0.0                           
2.25                          4.1703292590253706e-05        0.0                           
2.500035340632854             2.655781239511432e-18         0.0                           
2.75                          2.180016700186021e-05         0.0                           
3.0000146696383916            3.3398363337869915e-17        0.0                           
3.25                          -6.197859303554479e-17        0.0                           
3.499991681730933             -3.187493972584504e-16        0.0                           
3.75                          -2.5146582486474818e-05       0.0                           
3.999966234170493             -1.7483556921880348e-16       0.0                           
4.25                          -5.145584089473847e-05        0.0                           
4.49993948203843              1.632204626173994e-16         0.0                           
4.75                          -7.905327903657052e-05        0.0                           
4.999911478557076             -1.115541696166235e-16        0.0                           
5.25                          -0.00010786208349703817       0.0                           
5.499882256915417             4.825513515500684e-17         0.0                           
5.75                          -0.00013796670971687313       0.0                           
5.999851667059856             9.093660828909389e-17         0.0                           
6.25                          -0.0001696507315164179        0.0                           
6.499819360849344             6.38355675006297e-16          0.0                           
6.75                          9.897915494874858e-05         0.0                           
7.000096627064227             6.8597654876292834e-06        0.0                           
7.250007441561763             9.126651314907716e-05         0.0                           
7.500088217389822             8.698377361907602e-06         0.0                           
7.750009367087432             8.12954266715065e-05          0.0                           
8.00007739561381              1.0766679460065436e-05        0.0                           
8.25001148957829              6.867147479455398e-05         0.0                           
8.500063836931655             1.2961207764846085e-05        0.0                           
8.75001370194518              5.321855645011518e-05         0.0                           
9.000047441177625             1.517439022326911e-05         0.0                           
9.25001589914589              3.498534454446741e-05         0.0                           
9.500028328045765             1.7309782851525565e-05        0.0                           
9.750017989510201             1.4217743169931213e-05        0.0                           
10.00000677129784             1.928565529941721e-05         0.0                           
2.0009021291213853e-05        0.29999106561794253           0.0                           
0.24998283491993467           0.3000212992069214            0.0                           
0.5000218713858366            0.29996578847655436           0.0                           
0.7499570178836897            0.3000229835564526            0.0                           
1.0000235255043302            0.2999390295756598            0.0                           
1.249929824986044             0.3000245904828647            0.0                           
1.5000251189691554            0.29991101441044055           0.0                           
1.7499014098272079            0.3000261841589401            0.0                           
2.0000267279803166            0.2998817874319897            0.0                           
2.2498717561213106            0.300027856482221             0.0                           
2.5000284484535724            0.29985120034863677           0.0                           
2.7498406473732837            0.30002970499876286           0.0                           
3.0000303757268463            0.2998189035411015            0.0                           
3.2498076720970284            0.3000318156663943            0.0                           
3.500012603276828             0.3000956848120375            0.0                           
3.75009313114208              0.3000148646483907            0.0                           
4.000016094728213             0.300087300058665             0.0                           
4.250083985101579             0.3000187240782318            0.0                           
4.500020108984745             0.3000764810311804            0.0                           
4.750072269991673             0.30002297977159825           0.0                           
5.0000244492479995            0.3000628966128023            0.0                           
5.250057729539149             0.30002741584471715           0.0                           
5.500028897546594             0.30004644314494505           0.0                           
5.750040334581616             0.30003182265031453           0.0                           
6.000033253905063             0.30002722750676236           0.0                           
6.250020247288766             0.30003603153860275           0.0                           
6.500037376923249             0.30000546144816836           0.0                           
6.749997696880531             0.3000400449270103            0.0                           
7.000041337850801             0.29998149475623215           0.0                           
7.249973075712359             0.3000437386558921            0.0                           
7.500044872421861             0.2999556885317165            0.0                           
7.749946754107638             0.3000470640516225            0.0                           
8.00004813307754              0.2999284558265892            0.0                           
8.249919104450266             0.300050246472934             0.0                           
8.500051303880282             0.2999000097555778            0.0                           
8.749890263774187             0.30005345565292063           0.0                           
9.00005456489941              0.29987034795945017           0.0                           
9.249860159461374             0.3000568873406203            0.0                           
9.500058114837028             0.2998392551847818            0.0                           
9.749828505719798             0.3000607349745462            0.0                           
10.00006213888907             0.29980631215647063           0.0                           
9.643492074557145e-05         0.6000188504563103            0.0                           
0.2500204972994425            0.6000915764953149            0.0                           
0.5000888025209147            0.6000241010389755            0.0                           
0.7500260411767311            0.6000824619873045            0.0                           
1.0000788616072667            0.6000301456538464            0.0                           
1.2500322864104596            0.600070737070756             0.0                           
1.5000661963026967            0.6000366831012992            0.0                           
1.750038914254676             0.6000561382663627            0.0                           
2.0000506216242293            0.6000433829455767            0.0                           
2.250045598784641             0.6000386333865952            0.0                           
2.500032176010529             0.6000499470311695            0.0                           
2.7500520655607543            0.6000183795551554            0.0                           
3.0000110608130175            0.6000561786288358            0.0                           
3.250058175959033             0.5999956640416213            0.0                           
3.499987625008361             0.6000620292062221            0.0                           
3.7500638618441697            0.5999709274845076            0.0                           
3.9999622932036325            0.6000673376291554            0.0                           
4.250069000828764             0.5999445265411222            0.0                           
4.499935419994536             0.600072228398875             0.0                           
4.750073811449022             0.5999168041409993            0.0                           
4.999907304078729             0.6000769659565894            0.0                           
5.2500785589402605            0.5998879221816655            0.0                           
5.499878032933687             0.6000818328370182            0.0                           
5.7500835366701875            0.5998578180607177            0.0                           
5.999847468168168             0.6000871338376474            0.0                           
6.2500890479508255            0.5998262031438758            0.0                           
[...]
POINT_DATA  4141
SCALARS Con float 1
LOOKUP_TABLE default
0.0012785772247899947
0.0014006209698463605
0.00164334457097531
0.001928172906481329
0.002251261408815299
0.002613741161077914
0.0030165072003379635
0.0034598008906464835
0.003943149469180089
0.004465357505276078
0.005024527105527127
0.00561810294256626
0.006242937095618113
0.006895365333396544
0.0075712819041199786
0.00826618938374049
0.008975226489509911
0.009693105214330255
0.010415901290268386
0.011150443805128306
0.01197892116252486
0.012817957272429813
0.0135818711172052
0.014310191992892914
0.015044017752158792
0.015781207568529607
0.016522752473171524
0.017270279165348477
0.01802661070556988
0.018795526781180787
0.019581636601945063
0.020390263206850688
0.021227342610738675
0.022099327431010625
0.023013090428526152
0.023975824507521348
0.024994930157467038
0.026077767569920366
0.027229460032144902
0.028420446481865848
0.029104128862492223
0.0013043893301518648
0.0014295104324568368
0.0016773573182357448
0.001967727696660886
0.002296790775789266
0.0026655784394466688
0.003074884969958537
0.0035248445440942025
0.00401487610273323
0.0045436797312473215
0.00510926287472699
0.005708993446981662
0.006339677367591579
0.00699765835111975
0.00767894086612459
0.00837935959509789
0.009094844217528254
0.009822367594806647
0.010561156275016137
0.011332212188702822
0.012117891175373744
0.012893480108734744
0.013651769524345174
0.014405521326783109
0.015149008213685046
0.015891209227522064
0.016635101497611736
0.01738383946034246
0.018140964709273736
0.01891069427483322
0.019697931325851518
0.020508224155636728
0.021347697499369357
0.022222971657177723
0.023141073411961678
0.02410933936337849
0.025135303909302117
0.026226452621686273
0.027387967438389026
0.028590679604072636
0.02928186905335732
0.0012922833537964515
0.0014172279856437325
0.0016653963410913266
0.001956785826042148
0.0022874919939194424
0.0026585242149646648
0.0030706382664218166
0.003523924532907834
0.0040177561000295505
0.004550790248805662
0.0051210023188293635
0.0057257518302631935
0.00636188359938174
0.007025871699008846
0.007714029162062158
0.008422829750936662
0.00914952319734882
0.009892792017578785
0.01065624157198811
0.011418001191444985
0.012151688562858394
0.012890367624457456
0.013656289545012523
0.01441802428714219
0.01517171276464896
0.015918842248579715
0.016664066678878424
0.01741143218837587
0.018165199111639593
0.018930043078531595
0.01971118921178553
0.020514436434469437
0.021346131150823778
0.02221311124673923
0.023122632204782383
0.02408227974505009
0.025099862438940627
0.026183157910362794
0.027337651015106684
0.02853406796668843
0.029221611708233647
0.0012711154158890103
0.0013960606603466907
0.001644845322384063
0.0019378914165695588
0.0022712968008218345
0.0026460188523363772
0.003062747774980763
0.003521496981131178
0.004021556427594726
0.0045614993285430835
0.005139222685912569
0.005752022373983158
0.0063967058309476535
0.007069747585291903
0.007767491538860333
0.008486401876861997
0.009223186247341007
0.009974779929431101
0.010732065705898412
0.011483976225733553
0.01222960111024915
0.012973474354738298
0.013721845358473853
0.014476348366920862
0.01522744490949494
0.01597330844181764
0.016715630093752463
0.01745794060626396
0.018204487717964665
0.018960141775041486
0.019730372414550054
0.02052124333844751
0.021339384472067773
0.02219194341622881
0.023086519366096323
0.024031081257347438
0.025033861289093098
0.026103094356761992
0.02724473353678327
0.02843019069945707
0.02911240927852641
0.0012412022167347047
0.0013661458270231158
0.001615854063248287
0.001911286547283721
0.002248532436093989
0.0026284770620024485
0.0030517134456985737
0.003518140686101931
0.004026921246182234
0.004576490822528063
0.005164600760150626
0.005788392359769277
0.006444501827673735
0.007129189155560147
0.007838471044426606
0.008568182253336611
0.00931386509787263
0.010069650506183128
0.010828829004740583
0.011585731191730817
0.012337513270215483
0.013085880339492642
0.013833287920385377
0.014579323797359937
0.015322681768176184
0.01606126629512732
0.016795627642431185
0.017528257304299938
0.018263003975712375
0.019004663710001878
0.019758823271827295
0.020531775485774516
0.021330459088361085
0.022162398355642474
0.023035634412458723
0.023958643383687438
0.024940228900845775
0.025989260664450772
0.027112410284864143
0.028282256394345145
0.028957025660175915
0.0012022887809592692
0.0013272744007172515
0.001578250599266999
0.001876842276677087
0.0022191177737700555
0.0026058629499519986
0.0030375404886093943
0.003513895411046368
0.004033915043275404
0.004595839087029985
0.005197199207961188
0.00583488561852251
0.006505235424820439
0.007204130088460889
0.007927073084287093
0.008669208448693656
0.009425172242270692
0.0101892071163985
0.010955587567344055
0.011719582842222015
0.012478527248852329
0.013231577521794652
0.013978820087644745
0.01472028203472399
0.015455299673372043
0.01618363609460921
0.01690594467844139
0.017624403560240833
0.018342559497880034
0.019065109140890626
0.01979771583632666
0.020546891319031188
0.021319908802803364
0.02212472855689536
0.022969923514244418
0.02386459657882598
0.024818275732996765
0.02584066099612758
0.026939412126747796
0.02808858380470621
0.028753317068521213
0.0011541366002756793
0.0012792256652797622
0.0015318607079985505
0.001834435738983483
0.002182982700155392
0.0025781590933613946
0.0030202633567380254
0.0035088472938890427
0.0040426768603170566
0.004619739942654517
0.005237280524431781
0.005891856235465124
0.006579413883459509
0.0072953722284521865
0.008034698295284972
0.008791962156467218
0.009561444663512648
0.010337348497026486
0.011114231483968565
0.011887553614222144
0.0126540377832239
0.013411711969743906
0.014159533393572772
0.0148969267669075
0.015623689592281706
0.016340082216623128
0.017047267084844577
0.01774753348985213
0.01844442047361466
0.019142650838035877
0.019848023999662488
0.020567311662794973
0.02130816977331382
0.022079060860956127
0.022889179325839084
0.02374837205006904
0.02466704049792401
0.025655901280095327
0.026723807922958493
0.027846597432222467
0.02849840250416285
0.0010965606338340064
0.001221830748310519
0.0014765527290466903
0.0017839817687627945
0.0021400920209795208
0.002545382384078685
0.0029999547247379463
0.0035031322314942014
0.0040534189060924
0.004648502944608768
0.005285284481477975
0.005959926089294202
0.006667923327901159
0.007404191224014045
0.00816316392487246
0.008938922047567575
0.009725368537829258
0.010516491593790285
0.011306699715251117
0.012091162270092102
0.012866053740001021
0.013628605919168289
0.014377003659259402
0.015110238681696374
0.01582802002096821
0.0165308521732889
0.01722016864355531
0.017898499416528577
0.018569551224259198
0.019238219334803405
0.019910539284507974
0.020593618095256366
0.021295562954745377
0.022025413254966625
0.022793074310133377
0.023609247779891235
0.024485345676733203
0.025433264585560496
0.02646324980233702
0.027553291885394692
0.02818889760235243
0.0010294984720285352
0.001155030834144422
0.0014122852586608819
0.001725466395326502
0.0020904645267682963
0.002507589339437251
0.002976717584853355
0.0034969152335079883
0.004066392635990123
0.004682500848542282
0.0053417518130604615
0.006039863391719546
0.006771830303332469
0.0075320217460051785
0.00831430948998553
0.009112233169533315
0.009919213447439656
0.010728811624331423
0.011535016518700637
0.012332513834745071
0.013116885246219486
0.013884709440061906
0.014633575006166634
0.015362050670564948
0.016069674493115013
0.016756980803092517
0.0174255738924754
0.018078203241895168
0.01871882045439324
0.019352594261545467
0.01998589194758081
0.02062623847667017
0.02128226731545728
0.021963670110719535
0.02268114671943032
0.023446352613452123
0.024271830919184636
0.02517080737862578
0.026155115994047202
0.02720529718501139
0.027820988807795093
0.0009530907550330795
0.0010789487215215085
0.0013391607866628903
0.0016589817966534727
0.0020341885760196596
0.002464872457668516
0.0029506631155225985
0.0034903507494367172
0.004081832037832467
0.00472209502588064
0.005407228777511581
0.006132462017684055
0.006892235173671218
0.007680309539319411
0.008489916673546765
0.009313950427682247
0.01014519949809682
0.010976610649422278
0.0118015606733409
0.012614107196622487
0.013409189725459798
0.014182765352394124
0.014931883644842882
0.01565472251517502
0.016350609331759903
0.01702004801820283
0.017664753136877334
0.018287686070110824
0.018893079314895735
0.019486443148195705
0.02007455345546407
0.0206654273505605
0.02126829336633188
0.021893561889597443
0.02255279736472454
0.02325868987056849
0.024025013696213758
0.024866453863363145
0.02579661616250785
0.02679900621169443
0.027390570783449326
0.0008677759127095291
0.0009939710565540147
0.0012574848852698536
0.0015847607390613138
0.001971431378909275
0.002417344788434937
0.0029218720226284302
0.003483523092913185
0.00409987600659111
0.004767542997896025
0.005482163792880769
0.006238433800856866
0.007030174679770825
0.00785045243689601
0.008691745128038058
0.009546157986335917
0.010405678100093217
0.011262453655236013
0.012109076573007298
0.012938844499696178
0.013745981463355785
0.014525805410506316
0.015274842597165616
0.015990898166127206
0.016673097284647755
0.01732190880377726
0.01793915967244768
0.018528041580616
0.01909311001133037
0.019640274960491394
0.020176785671998133
0.020711213397382213
0.021253437081933484
0.02181463532351107
0.022407285447411017
0.023045166830190936
0.023743355966289268
0.024518097727722083
0.02538492723489656
0.02633073932482432
0.0268934275555801
0.0007743976320309858
0.0009008398501588333
0.001167828257078854
0.0015032074034774052
0.001902438374683775
0.002365108999947364
0.002890335878830853
0.003476364158895347
0.004120468005937539
0.004818887083745119
0.005566793970882454
0.006358304730322481
0.0071865433948801434
0.008043766989749977
0.008921552168452147
0.009811038082856887
0.010703213129262498
0.011589226942442462
0.012460704762196352
0.013310040797854606
0.014130650930546213
0.014917172426457377
0.01566560701626417
0.01637341167313117
0.01703954612931122
0.01766448823269237
0.018250227189050238
0.018800242980884882
0.01931947860319697
0.019814310787445052
0.020292524689470442
0.02076329801794301
0.02123719894664759
0.021726200524046266
0.02224371144658363
0.022804619508022803
0.023425334660628554
0.024123720277608222
0.024917358843608118
0.02579695489754035
0.026325466735175676
0.0006743206962102306
0.0008007488702226995
0.00107108712130769
0.0014149199084926359
0.0018275180725576658
0.0023082063552980355
0.002855874037800059
0.0034685441590669016
0.004143228671709997
0.004875819090196776
0.005661014082384241
0.006492301880297475
0.007362012637248659
0.008261449496284984
0.009181098947192873
0.010110912011753565
0.011040639277287496
0.01196019602745267
0.01286003008278426
0.013731465415264831
0.014566998880348259
0.015360534980631158
0.016107552199467887
0.01680520282816363
0.01745235453123956
0.018049585850135746
0.01859914950241252
0.019104917023158113
0.019572317482503564
0.020008281207315473
0.02042119809004003
0.020820898034086252
0.02121865912048222
0.021627246219512026
0.022060979495442175
0.022535828029021637
0.023069514543710923
0.02368152398080032
0.02439154950238915
0.02519450590253517
0.025683008451714107
0.0005695468381375449
0.0006954367797153212
0.0009685347406303167
0.0013206983548428896
0.0017470070995475391
0.0022465412136507437
0.002818022068784917
0.003459331125992521
0.00416729655881478
0.00493751533008396
0.005764220945005896
0.006640222743725543
0.0075569383539666295
0.00850453131899947
0.009472154246156812
0.0104482853860465
0.011421135295564638
0.012379091886058548
0.013311168175984376
0.014207418071989207
0.015059291326676601
0.01585990796542713
0.016604243325240863
0.01728922530268536
0.017913754119770826
0.018478660870774655
0.018986624336336168
0.019442066178242734
0.019851043485462794
0.020221155293818283
0.02056147662810468
0.020882530549834678
0.021196305179771384
0.021516319309022158
0.02185773627338004
0.022237520709474816
0.02267462159416955
0.023190079266906596
0.023805690326824867
0.024520940894932116
0.02496312931925446
0.00046281501102988154
0.0005872634796640902
0.0008618535152505344
0.0012215309098355313
0.0016612112876721187
0.002179778875982247
0.0027758902233525804
0.0034474173466659324
0.004191134395592308
0.005002438860364535
0.005875130271647993
0.006801285424045789
0.007771260653892358
0.00877383797730794
0.009796515394001202
0.010825924326872845
0.011848341484329394
0.012850250962731388
0.013818907257123229
0.01474285180673687
0.015612344032235851
0.016419680849495105
0.017159393737141374
0.017828327031400738
0.018425613122108202
0.018952568629625244
0.019412539732665258
0.01981072564272396
0.020154006750713247
0.020450800267270083
0.020710961021122597
0.02094574050588699
0.021167812314907757
0.021391368441512466
0.021632287117621687
0.021908368035975952
0.02223961828829022
0.022648482000332176
0.023158771367150128
0.023774843486823412
0.024164055169015576
0.0003576624430611077
0.00047924899883175536
0.0007531332690143562
0.0011185519709656854
0.0015703228005175948
0.002107220568188925
0.0027279959886930692
0.003430715202815901
0.004212302562587124
0.005068110606836494
0.005991568633371986
0.006973964988566807
0.008004405029304107
0.009069968942227459
0.010156070392851333
0.011246992296629253
0.012326552723334223
0.013378837441735044
0.01438892810595876
0.015343558541177731
0.01623164476314638
0.017044654180825427
0.017776802100499194
0.01842508482665058
0.018989175693816366
0.019471221162628186
0.01987557882228171
0.020208538292425894
0.020478061311775313
0.02069357035393348
0.020865807346810976
0.021006776805656865
0.021129781611844173
0.021249555273295903
0.021382491791528072
0.021546973209143797
0.021763785309593057
0.02205652725909289
0.022450841336901714
0.02295619706939244
0.02328559529300896
0.0002584068295568894
0.00037504453342187486
0.0006448217274673441
0.0010129702397206005
0.0014743257054052874
0.0020276695657196115
0.002672079604156509
0.003406131415760634
0.004227209716434834
0.005130859632657858
0.006110251415465207
0.007155829085491667
0.008255202976337467
0.009393322413173989
0.010552932889855563
0.011715284902344442
0.01286102639428855
0.013971184587237447
0.015028131852085245
0.016016436372879476
0.01692352008117185
0.017740078299943878
0.01846025088353836
0.019081566504951398
0.019604705588094292
0.02003314076476113
0.02037271720893264
0.02063123069881348
0.020818051284804653
0.020943828632250874
0.021020302637422175
0.021060232777857724
0.021077451470552795
0.02108704187479474
0.021105639032188553
0.02115185474451595
0.021246835532790286
0.021414900979027734
0.02168329518791216
0.0220667517932351
0.022329564030899196
0.00017001803364728114
0.00027880112752868495
0.000539605417805162
0.0009060013577579815
0.0013729216314248179
0.0019392935098948825
0.0026049157903667458
0.003369342267506034
0.004230865890838129
0.00518557688776202
0.006226569060426736
0.007343395045995571
0.008521857804018701
0.009744198114123729
0.010989691646750682
0.012235611610052289
0.013458456955337345
0.014635302866118827
0.015745112316876454
0.016769858871537993
0.01769534778971839
0.018511676739446384
0.01921333373221718
0.019798979103577197
0.020270990906342448
0.020634868235121815
0.020898585336087058
0.021071976749761624
0.02116621449954464
0.021193417908995836
0.021166418195566635
0.021098685673061637
0.02100441777169669
0.020898781101256435
0.02079829954445009
0.020721384808562605
0.020689008682322558
0.020725548196164012
0.020859146078614072
0.02111039784263275
0.021300302984059154
0.00010065346853440141
0.00019488374671104922
0.00044035020664027433
0.0007988603838231336
0.0012654086224789943
0.0018394790178807383
0.002522164960690202
0.003314627746061531
0.004216696489600539
0.0052255228390506
0.0063344236004124034
0.007532045913575439
0.008801994853663057
0.010123025060882477
0.011469832589151767
0.012814391541360043
0.014127686187912441
0.015381615066560127
0.016550813097592394
0.017614158029159034
0.018555795101624712
0.019365606000710012
0.020039143376293454
0.02057712622854766
0.020984636246698985
0.021270165987739956
0.02144465677950869
0.02152063400492933
0.021511512445932347
0.021431110798786793
0.021293387962230126
0.021112395603643846
0.020902432160334005
0.020678380084867453
0.020456210603447832
0.02025364209867481
0.02009095034558423
0.019991851778194916
0.019984309428563184
0.020093431230421756
0.020204438391195352
5.046496937119959e-05
0.00012781091050813055
0.00035002076896860774
0.0006925212073003782
0.0011506690009191773
0.0017250584267500015
0.0024187214498137535
0.0032352742344213007
0.00417695832716683
0.005242755364722197
0.006426699443585817
0.007716599425008885
0.009093388581414777
0.01053128563066912
0.011998852459877998
0.0134608875842327
0.014880928547344288
0.01622400547585665
0.017459229741135847
0.018561844440190812
0.019514486526094936
0.02030757925530888
0.020938931846932195
0.021412739093794056
0.021738224779965707
0.021928170880462807
0.02199752987403158
0.02196225769867644
0.021838441755302498
0.021641747754760677
0.021387173227451484
0.021089076697614714
0.020761445562882223
0.020418370012929846
0.02007469972611528
0.019746872425445514
0.019453900842514256
0.019218542782181925
0.01906785371486107
0.019030529941203814
0.01905696265121442
0.0010575030071668563
0.001629883315338996
0.0031746836577367854
0.006557977831157436
0.00795321892655048
0.011022098736680738
0.012624347130536518
0.015746139578476946
0.017177076799982042
0.01959801510266055
0.020542538678758784
0.021296596026719027
0.0218621854358791
0.022248832363664494
0.022471473981138197
0.02254834748401555
0.02057168168318431
0.020119694133771952
0.018453688496446637
0.01817204354559412
0.017944527934619266
2.3641078089290716e-05
8.817655312894104e-05
0.0002862729134191313
0.0006103444034062508
0.0023333073556783533
0.004159436585109711
0.005288906499790948
0.009451885946651178
0.014214240998731108
0.018470322384477184
0.022499139453500835
0.022343544501377936
0.022100286345535885
0.021786585114492413
0.021418015737680384
0.021008687698874783
0.019665862378723486
0.01922476586402199
0.018813627165972055
0.01799891613682747
1.6721666967803098e-05
6.588872163944897e-05
0.0002381879373428512
0.0005402739302222801
0.0009689800377552766
0.0015276280140034918
0.002224015167713792
0.003067696738270483
0.004066906744109354
0.005225473036571683
0.006539879046418004
0.007996855798825713
0.009571959618856981
0.011229579115739002
0.012924636880982781
0.014605926935744893
0.01622063893090969
0.017719296566397487
0.019060215049104743
0.020212713395274372
0.021158653486037262
0.02189228235796183
0.02241869448756604
0.022751420525269024
0.02290968127599244
0.02291575785779
0.02279278331516638
0.022563107162635217
0.02224725976793556
0.02186346091990962
0.021427576840227468
0.020953423524002066
0.020453328698837984
0.0199388907841387
0.01942190383135084
0.018915442496871198
0.018435141002080338
0.018000651714765642
0.017637416069154418
0.01737661897018693
0.017272075425770222
1.9761819071114003e-05
5.388310662393933e-05
0.00020196476196749632
0.0004828380960717878
0.0008936038358663397
0.0014386393865863459
0.0021279837653870185
0.0029740808802611613
0.003988286326849518
0.005177218835128221
0.006539197226234685
0.00806118710534904
0.009716858964455916
0.011466372516637239
0.013258301445264277
0.015033687716381399
0.01673167048789283
0.018295666279811957
0.019678890082560404
0.020848195072334923
0.02178569279894713
0.02248818933038631
0.022964929297612725
0.023234365754537235
0.023320671990606175
0.023250554502345422
0.023050707503931605
0.02274604117092073
0.022358660891333426
0.021907484869937658
0.021408354101854835
0.020874495832902847
0.020317231107989622
0.019746855177239366
0.01917365605959742
0.018609077177342465
0.018067016527433928
0.017565431922360715
0.017127515778943548
0.016788725967923156
0.016641704917169514
2.991814557539937e-05
4.8799777476398553e-05
0.00017151476434552724
0.0004292999522909419
0.0008198429981699933
0.001348695987291304
0.0020283964592647838
0.002874724866505978