# vtk DataFile Version 2.0
time_10.vtk
ASCII
DATASET UNSTRUCTURED_GRID
POINTS   4141  float 
5.408005313832904e-06         7.860688986050583e-17         0.0                           
0.25000000000000044           5.109588384362218e-06         0.0                           
0.5000049444996822            -1.2136496086273507e-17       0.0                           
0.7500000000000007            4.57738408028596e-06          0.0                           
1.0000043736360995            -9.396170161297898e-18        0.0                           
1.25                          3.9224931215751354e-06        0.0                           
1.5000036742380276            -4.623116691574027e-16        0.0                           
1.75                          3.131360829830745e-06         0.0                           
2.000002836794909             3.130210269203362e-16         0.0                           
2.25                          2.2026530310207617e-06        0.0                           
2.500001864010882             9.787485699344522e-17         0.0                           
2.7499999999999996            1.1471957841658397e-06        0.0                           
3.0000007713895953            4.777663300373931e-17         0.0                           
3.25                          -3.47073806256043e-17         0.0                           
3.499999569001212             -4.794367880907959e-17        0.0                           
3.75                          -1.3014864503708407e-06       0.0                           
3.999998254160044             5.700154190015257e-16         0.0                           
4.25                          -2.654053746818967e-06        0.0                           
4.499996882703367             -1.1652833714707743e-16       0.0                           
4.75                          -4.060545477797143e-06        0.0                           
4.9999954598101475            1.6717762522676538e-15        0.0                           
5.25                          -5.515483240783156e-06        0.0                           
5.499993988488018             4.7034054894364995e-18        0.0                           
5.75                          -7.022331084103137e-06        0.0                           
5.999992461657511             2.1020308480135418e-17        0.0                           
6.250000000000002             -8.595630791224835e-06        0.0                           
6.4999908610996595            -3.0103207273068615e-15       0.0                           
6.75                          5.393501185041157e-06         0.0                           
7.000005249407549             4.160449485759024e-07         0.0                           
7.2500004430369405            4.930526903643169e-06         0.0                           
7.500004753548273             5.020515701787742e-07         0.0                           
7.750000533737784             4.3598704966153416e-06        0.0                           
8.000004141712113             6.004795457271646e-07         0.0                           
8.250000635104584             3.660215233797056e-06         0.0                           
8.500003396319961             7.057581993280602e-07         0.0                           
8.750000741351172             2.8219888614774517e-06        0.0                           
9.000002511896161             8.120370656563947e-07         0.0                           
9.250000846749412             1.847743554643466e-06         0.0                           
9.500001494813636             9.140462442434403e-07         0.0                           
9.750000946301856             7.506548079005337e-07         0.0                           
10.000000359975289            1.0073171991030853e-06        0.0                           
1.0409327278050882e-06        0.299999540728818             0.0                           
0.24999911375250752           0.30000110034761335           0.0                           
0.5000011264774611            0.2999982335155155            0.0                           
0.7499977825609563            0.3000011766872323            0.0                           
1.0000012008702335            0.299996861705654             0.0                           
1.249996392595822             0.3000012479089979            0.0                           
1.5000012710622295            0.299995438268874             0.0                           
1.7499949532095007            0.30000131752470566           0.0                           
2.0000013412281064            0.29999396670870926           0.0                           
2.2499934646124284            0.30000139061593584           0.0                           
2.500001416719912             0.29999244002234604           0.0                           
2.7499919160289146            0.3000014727618197            0.0                           
3.0000015030733813            0.2999908399357716            0.0                           
3.2499902856175122            0.30000156907659975           0.0                           
3.500000780655834             0.30000520647385504           0.0                           
3.7500050530753124            0.30000088506997              0.0                           
4.000000942634065             0.3000047119629148            0.0                           
4.250004522225852             0.30000106690088135           0.0                           
4.500001132834936             0.3000041003233602            0.0                           
4.750003866972125             0.3000012701787288            0.0                           
5.000001340700372             0.30000335366689523           0.0                           
5.250003073456429             0.3000014832371213            0.0                           
5.5000015544083976            0.3000024663843493            0.0                           
5.75000214010983              0.3000016946252744            0.0                           
6.000001762997397             0.300001444331462             0.0                           
6.250001075868379             0.3000018949884519            0.0                           
6.500001958459927             0.3000002996705716            0.0                           
6.749999894104267             0.30000208308835147           0.0                           
7.000002142867501             0.2999990518222849            0.0                           
7.249998616264562             0.3000022528201092            0.0                           
7.500002304172426             0.299997720920329             0.0                           
7.749997262902571             0.30000240230404324           0.0                           
8.000002449649187             0.29999632905624607           0.0                           
8.24999585395681              0.3000025424330551            0.0                           
8.500002588576606             0.29999488825043175           0.0                           
8.749994397572731             0.30000268231595134           0.0                           
9.0000027307412               0.29999339931486246           0.0                           
9.249992890793488             0.30000283282011597           0.0                           
9.500002887307001             0.29999185152865127           0.0                           
9.749991318999031             0.30000300512648853           0.0                           
10.000003069148894            0.2999902227712103            0.0                           
5.27732506997173e-06          0.6000011680658579            0.0                           
0.2500012437223159            0.6000049823716908            0.0                           
0.5000048186647347            0.6000014117331411            0.0                           
0.7500015031963239            0.6000044532472207            0.0                           
1.0000042497148143            0.600001698243311             0.0                           
1.2500018005601843            0.600003797576114             0.0                           
1.5000035480746357            0.6000020114370761            0.0                           
1.7500021186495445            0.6000030011643614            0.0                           
2.0000027037974597            0.600002333381776             0.0                           
2.2500024397057943            0.6000020623741334            0.0                           
2.5000017191131954            0.6000026476797857            0.0                           
2.750002748528558             0.60000099003927              0.0                           
3.0000006053952237            0.600002943003887             0.0                           
3.2500030366479167            0.5999998002802187            0.0                           
3.4999993818558104            0.6000032155775646            0.0                           
3.7500032997935717            0.5999985167951086            0.0                           
3.9999980715502153            0.600003457757109             0.0                           
4.2500035324677246            0.5999971595700191            0.0                           
4.49999669422224              0.6000036758465365            0.0                           
4.750003745482552             0.5999957472261565            0.0                           
4.999995266121758             0.6000038833036414            0.0                           
5.250003952655751             0.5999942889804798            0.0                           
5.499993792609231             0.6000040953560767            0.0                           
5.750004169991514             0.5999927822857217            0.0                           
5.999992267085162             0.6000043290335085            0.0                           
6.2500044146647395            0.5999912123904384            0.0                           
[...]
POINT_DATA  4141
SCALARS Con float 1
LOOKUP_TABLE default
4.8605814683962655e-06
5.200664948569514e-06
5.873183597001911e-06
6.65653130970316e-06
7.53861973429901e-06
8.521463142083075e-06
9.606550591522005e-06
1.0793680197788073e-05
1.2080788972015205e-05
1.3463922843354551e-05
1.493728258831936e-05
1.649333714305297e-05
1.812299390308506e-05
1.9815807836783805e-05
2.156019238198674e-05
2.334357912384536e-05
2.5152496345450335e-05
2.6972460957382137e-05
2.8791412339683776e-05
3.062531486748191e-05
3.267384988530248e-05
3.472547209533429e-05
3.657302711958813e-05
3.832877171217033e-05
4.008120988954166e-05
4.182519471742185e-05
4.3563333859347357e-05
4.530044268416009e-05
4.7044586397850456e-05
4.880648409190521e-05
5.059919965379851e-05
5.243787683975819e-05
5.4339506233323154e-05
5.632272072276126e-05
5.8407586522356573e-05
6.061538879548513e-05
6.296836976290351e-05
6.548903765155575e-05
6.819396765947138e-05
7.101001718530532e-05
7.263155850079977e-05
4.931205600049981e-06
5.279029875760443e-06
5.964922039950448e-06
6.762635309719001e-06
7.6601117845418e-06
8.659089985481961e-06
9.760785847780893e-06
1.096470926198839e-05
1.226850830818897e-05
1.366795130520766e-05
1.5156987358306828e-05
1.6727880899226597e-05
1.837141303780269e-05
2.0077146528795564e-05
2.1833753952035687e-05
2.3629458120851798e-05
2.545270984217527e-05
2.729436317089426e-05
2.9151201369932247e-05
3.106816771084941e-05
3.300375514595434e-05
3.4904746296394044e-05
3.6749109336631305e-05
3.85609315921859e-05
4.0333048042609945e-05
4.2085882570945066e-05
4.3826925838376054e-05
4.556450580884896e-05
4.730834163074611e-05
4.907016623472507e-05
5.0863727943126375e-05
5.270469711801061e-05
5.4610507066466785e-05
5.660018372723922e-05
5.869415405078044e-05
6.0914038990260896e-05
6.328239448775302e-05
6.582202494046175e-05
6.854968891709442e-05
7.139345991713178e-05
7.303284559192668e-05
4.8910957556124535e-06
5.238856427763307e-06
5.926323439965088e-06
6.7276153455084856e-06
7.630392617314563e-06
8.63628489035909e-06
9.74636064257393e-06
1.095997268348098e-05
1.2274609162901186e-05
1.3685887563852459e-05
1.5187633842211826e-05
1.6772046578154848e-05
1.8429954566923677e-05
2.0151181981129995e-05
2.1925077631084162e-05
2.374130898308757e-05
2.5591335406233755e-05
2.747010816745786e-05
2.9383867012278815e-05
3.128260587334753e-05
3.3097944877580256e-05
3.490714033719906e-05
3.6767253191163784e-05
3.859999973706046e-05
4.039509542445e-05
4.2158083629308575e-05
4.390069647033769e-05
4.563351705119813e-05
4.736797297498063e-05
4.911686129539413e-05
5.089466745513836e-05
5.271761674646615e-05
5.460362712926345e-05
5.657218613276241e-05
5.864420294960978e-05
6.084182547321565e-05
6.318819604548234e-05
6.570677361959698e-05
6.841513281544494e-05
7.124173180379256e-05
7.287185549994618e-05
4.821640711843936e-06
5.1700454521287394e-06
5.8604590029826186e-06
6.667692549280178e-06
7.5793059225273615e-06
8.596707188669322e-06
9.72071861633103e-06
1.0950421521908365e-05
1.2283020916402661e-05
1.3713851230352946e-05
1.5236471500348445e-05
1.6842851076775897e-05
1.8523653017920773e-05
2.0268627505167222e-05
2.2067124418443044e-05
2.3908728031431753e-05
2.5783631952817618e-05
2.7682676867351722e-05
2.9583278486982513e-05
3.1456901945207816e-05
3.330090828038605e-05
3.512447570982008e-05
3.694077342563264e-05
3.8754498815298205e-05
4.0542541796091606e-05
4.23009110917595e-05
4.4034781450921305e-05
4.5753698032979245e-05
4.746917003446412e-05
4.919449546335328e-05
5.094473863522384e-05
5.273672834551162e-05
5.4589006513683346e-05
5.652173578379183e-05
5.8556569915637645e-05
6.071649475889515e-05
6.302560631526218e-05
6.550845441848473e-05
6.818384446123975e-05
7.098226557858146e-05
7.259866248941718e-05
4.723416714697882e-06
5.072767335631762e-06
5.767521934212599e-06
6.583307226845821e-06
7.507504518868673e-06
8.541218030296283e-06
9.68491082769269e-06
1.0937268260125065e-05
1.2295070765742335e-05
1.3753208931002878e-05
1.5304781341552362e-05
1.6941281256815095e-05
1.8652862624869725e-05
2.0428675251902128e-05
2.2257223122645e-05
2.412657431546567e-05
2.602419195095237e-05
2.7934465049223178e-05
2.9839752926422398e-05
3.172534205700987e-05
3.358291756471611e-05
3.5415583779942605e-05
3.722863102111843e-05
3.9020418315833533e-05
4.078805866705622e-05
4.252707082306245e-05
4.4239710164039406e-05
4.593321773445318e-05
4.7618276724151965e-05
4.930808426744749e-05
5.101800740186059e-05
5.276539956742518e-05
5.456948587218125e-05
5.6451246699604496e-05
5.843329607585611e-05
6.0539737760086276e-05
6.27959620651283e-05
6.522801333201716e-05
6.78564700307437e-05
7.061459409902548e-05
7.221111803465498e-05
4.595513491690985e-06
4.946249176574959e-06
5.646895636360368e-06
6.474010382668469e-06
7.414719031258968e-06
8.469718053506621e-06
9.638995277385892e-06
1.0920709040667085e-05
1.2311066652464172e-05
1.380434027799297e-05
1.5392960415850274e-05
1.7067684583213838e-05
1.8817830585728663e-05
2.063154237576157e-05
2.2496029587501966e-05
2.4397682709285606e-05
2.6321809532347804e-05
2.8252910112029054e-05
3.017576181635331e-05
3.207757351599944e-05
3.3950851527743186e-05
3.579275131840199e-05
3.760295496115538e-05
3.938134269395056e-05
4.112639758969113e-05
4.2838152562743335e-05
4.45191764252866e-05
4.617600800227221e-05
4.7818722465110606e-05
4.9460359631433294e-05
5.111650321334718e-05
5.2805011584304615e-05
5.4545846198953614e-05
5.6360928357017876e-05
5.827402060390392e-05
6.0310593878413484e-05
6.249764744791641e-05
6.486310815877705e-05
6.742980598953959e-05
7.013462656752373e-05
7.170475732997831e-05
4.43699458764942e-06
4.78964109147949e-06
5.4979185478643446e-06
6.339345756638337e-06
7.300700495175469e-06
8.382163552956665e-06
9.583129447756541e-06
1.09010991891497e-05
1.2331561980890183e-05
1.3868003356197244e-05
1.5501990281034898e-05
1.7223320462909848e-05
1.9020229070638273e-05
2.0879630712138347e-05
2.2787354909963022e-05
2.472834907228021e-05
2.668698523026222e-05
2.8647612922829917e-05
3.059559474446322e-05
3.251871626348129e-05
3.44080917487203e-05
3.6258350544942856e-05
3.806669825665171e-05
3.983175187186752e-05
4.1553362251701434e-05
4.323284508759595e-05
4.487407236305884e-05
4.648394057397659e-05
4.8072590149952564e-05
4.965319794117634e-05
5.124169985053252e-05
5.285655168701628e-05
5.451854935562163e-05
5.62506884762257e-05
5.807805437306717e-05
6.002770911510157e-05
6.212855159349785e-05
6.441075112549038e-05
6.689986106450587e-05
6.953726583215996e-05
7.107380883225325e-05
4.247001841907664e-06
4.602175124066202e-06
5.320005844195581e-06
6.178934614377812e-06
7.1652855985934816e-06
8.278609465697014e-06
9.517593214613821e-06
1.0878960770952955e-05
1.2357348241380416e-05
1.3945306362723396e-05
1.563336731757893e-05
1.741018493440858e-05
1.9262732516270425e-05
2.1176556903202016e-05
2.313607609304652e-05
2.512494588393304e-05
2.712653917479858e-05
2.912462216926319e-05
3.110421718755953e-05
3.305247872390376e-05
3.495935625056804e-05
3.6817743141853254e-05
3.862320549072027e-05
4.0373599437273833e-05
4.2068825320273465e-05
4.3711027141666304e-05
4.530489634888681e-05
4.685803906195395e-05
4.838109945627632e-05
4.988773588884856e-05
5.139446775506381e-05
5.292051303135698e-05
5.448764048973126e-05
5.612006018345748e-05
5.784434321454794e-05
5.968934838027685e-05
6.16861274945679e-05
6.38674251264151e-05
6.626195902884375e-05
6.88165200650882e-05
7.031149236197965e-05
4.0249435775891286e-06
4.383325984106264e-06
5.112778823283493e-06
5.99257196699335e-06
7.008452287689105e-06
8.159227961632987e-06
9.442774126111282e-06
1.085493140132178e-05
1.2389372482425911e-05
1.40375835419906e-05
1.578891808359014e-05
1.7630723436353966e-05
1.9548548263335986e-05
2.152642548523375e-05
2.3547244085424283e-05
2.5593211585968907e-05
2.7646434871496817e-05
2.968960854662025e-05
3.1706772401102765e-05
3.3684027784785396e-05
3.561006659863918e-05
3.7476434112179646e-05
3.9277536087117775e-05
4.1010526042288534e-05
4.267523089941603e-05
4.427417738336414e-05
4.581273314910457e-05
4.7299229426491764e-05
4.87450405487682e-05
5.0164558993557087e-05
5.1575112822813456e-05
5.2996857207680935e-05
5.445268345999311e-05
5.596815015649337e-05
5.757145562166559e-05
5.92934228489683e-05
6.116747079734988e-05
6.322920097657145e-05
6.551090511787495e-05
6.796571122825823e-05
6.94102181639925e-05
3.7707167252253546e-06
4.133011442591181e-06
4.87621845282401e-06
5.780326160300856e-06
6.830369479449548e-06
8.02430770695964e-06
9.359114238569442e-06
1.0829669041887506e-05
1.2428595242882525e-05
1.414621238443903e-05
1.5970565940630058e-05
1.7887541230253963e-05
1.9881079809766805e-05
2.1933497818886457e-05
2.402591998800136e-05
2.6138819741232477e-05
2.825266166591618e-05
3.034861949480639e-05
3.240930752923532e-05
3.441945175060927e-05
3.636641440658024e-05
3.82405319339565e-05
4.003525789149263e-05
4.174719505682521e-05
4.337607308902785e-05
4.492473910345017e-05
4.639917102375961e-05
4.780847998506878e-05
4.916490631776942e-05
5.048376323149765e-05
5.178336809827738e-05
5.308497195631925e-05
5.441271206823032e-05
5.57936042202879e-05
5.7257577150212236e-05
5.8837534210518655e-05
6.05694164445989e-05
6.249190569438426e-05
6.464121324461753e-05
6.69777502125797e-05
6.836188780363386e-05
3.4849792034525067e-06
3.851826766970478e-06
4.610837320686168e-06
5.542643473003439e-06
6.631432088677743e-06
7.87421786742104e-06
9.267015834391989e-06
1.0803701637101085e-05
1.247579880184267e-05
1.4272386652126901e-05
1.6180085652773764e-05
1.818315450409894e-05
2.026370751423086e-05
2.2402071178911503e-05
2.457727528114276e-05
2.6767671618689455e-05
2.895165198989614e-05
3.110842205976598e-05
3.321877319571431e-05
3.526577869553681e-05
3.723536187172591e-05
3.911668940348741e-05
4.0902397465124496e-05
4.25886804087263e-05
4.4175285634912386e-05
4.566546205923536e-05
4.7065881999148065e-05
4.8386555000023905e-05
4.964073256947209e-05
5.084481224170997e-05
5.201825426306769e-05
5.318352920866225e-05
5.436611145795779e-05
5.559453366399613e-05
5.69004957845847e-05
5.8319030357881616e-05
5.9888676908554606e-05
6.165133013641942e-05
6.36473924660778e-05
6.58454940255442e-05
6.715828729181685e-05
3.1694610962186647e-06
3.541316435992792e-06
4.317866222736336e-06
5.280446763817007e-06
6.4122694641826675e-06
7.709337613310586e-06
9.166693456012372e-06
1.0777216459309138e-05
1.2531331931880576e-05
1.4416837215400297e-05
1.6418825707940716e-05
1.8519745465446374e-05
2.069961445030092e-05
2.2936414540795955e-05
2.5206650823970094e-05
2.748606987551157e-05
2.975048049650827e-05
3.197663605673561e-05
3.4143089711571046e-05
3.623097772002403e-05
3.822464494539892e-05
4.0112103991175824e-05
4.188529560958396e-05
4.354019262759214e-05
4.5076769867149184e-05
4.649888687841967e-05
4.7814121509096885e-05
4.9033585514758195e-05
5.017173901640944e-05
5.1246239274432506e-05
5.22778278818211e-05
5.3290286616629085e-05
5.431046974566719e-05
5.536842053352621e-05
5.649757917174833e-05
5.7735062670261764e-05
5.91219808665921e-05
6.070347145282052e-05
6.252428819633323e-05
6.456218314325734e-05
6.579158407227468e-05
2.8273223457027846e-06
3.2042724902605917e-06
3.999449246605856e-06
4.995219278438768e-06
6.173721802506644e-06
7.5299254259237825e-06
9.057954045095615e-06
1.0749773803016493e-05
1.2594777803321697e-05
1.4579487203755743e-05
1.6687380279774075e-05
1.889888713852711e-05
2.1191596137623716e-05
2.3540686981040785e-05
2.5919589841098616e-05
2.8300831667154594e-05
3.065701900536471e-05
3.2961874490502376e-05
3.519124668939095e-05
3.732401396343554e-05
3.93427980605382e-05
4.123448152038966e-05
4.299047595569598e-05
4.460680089832124e-05
4.608398140411241e-05
4.7426832599108774e-05
4.8644175533076746e-05
4.974852657389278e-05
5.0755822949171005e-05
5.1685184851055473e-05
5.2558773421115984e-05
5.340174160686171e-05
5.424230656023971e-05
5.511194357994022e-05
5.604570096154312e-05
5.708262022781221e-05
5.826623205147106e-05
5.9644809581657227e-05
6.126748383160093e-05
6.31219641571432e-05
6.425489970731101e-05
2.46353009425765e-06
2.8450428392867354e-06
3.658823361411597e-06
4.689051953925624e-06
5.916755729845323e-06
7.335920503286089e-06
8.939897783374471e-06
1.0719926830405919e-05
1.2664526948217424e-05
1.4759016715396727e-05
1.6985192019383474e-05
1.9321224938719876e-05
2.1741850451625275e-05
2.4218857569323843e-05
2.672187817227889e-05
2.921942991551929e-05
3.1680126019535466e-05
3.4073948689688985e-05
3.637348314848189e-05
3.855498008200375e-05
4.059920619555279e-05
4.249198475156583e-05
4.422446667473725e-05
4.579311276686335e-05
4.719947798831404e-05
4.844983518490667e-05
4.9554726364971894e-05
5.052850707120938e-05
5.138892819876133e-05
5.215682257799673e-05
5.285590141482283e-05
5.351271513431674e-05
5.4156761386431965e-05
5.482077196138737e-05
5.554114909325224e-05
5.635856886190407e-05
5.731867678345182e-05
5.847261581614714e-05
5.987375542881233e-05
6.152049993809355e-05
6.254301785503473e-05
2.0852285132328586e-06
2.469820193896443e-06
3.300461803790341e-06
4.364633890254143e-06
5.642314531781249e-06
7.126655537155427e-06
8.810512026830149e-06
1.0684728856876103e-05
1.2737240140032734e-05
1.495232844687601e-05
1.7310068670522196e-05
1.978609392298474e-05
2.2351742174240854e-05
2.497462735168702e-05
2.7619629164152517e-05
3.025020671582865e-05
3.2829950112861196e-05
3.5324199078735575e-05
3.770157858982729e-05
3.993531001223757e-05
4.2004188905044933e-05
4.389316986153621e-05
4.559355948218891e-05
4.7102862791645424e-05
4.8424347434576974e-05
4.9566453538716904e-05
5.054210267186218e-05
5.1368049035143466e-05
5.2064290045778466e-05
5.265365023677648e-05
5.316152365192437e-05
5.361583177552704e-05
5.404718897518043e-05
5.448928847978715e-05
5.4979501496372746e-05
5.5559670310353645e-05
5.6277076968235845e-05
5.718527836968561e-05
5.834157083019935e-05
5.975563610100773e-05
6.0653150297143766e-05
1.7020322484390725e-06
2.0868575627840415e-06
2.9301365440863225e-06
4.025174970928403e-06
5.351096362909496e-06
6.900497959468008e-06
8.66618944068228e-06
1.0639143321067006e-05
1.280720106212307e-05
1.5153904922558564e-05
1.7657624162051193e-05
2.0291107267785487e-05
2.3021578084893684e-05
2.5811431745436546e-05
2.8619492811478842e-05
3.1402756615583976e-05
3.411842028246845e-05
3.672600135761144e-05
3.9189313134977556e-05
4.14780910756528e-05
4.3569131455591484e-05
4.544688034333546e-05
4.710348002013686e-05
4.853835623628467e-05
4.975748057947151e-05
5.0772418257450275e-05
5.159934635218181e-05
5.225812889206999e-05
5.2771529592420116e-05
5.316467563931497e-05
5.3464744155782156e-05
5.37009337941013e-05
5.390470862334411e-05
5.4110299673282054e-05
5.435548637463341e-05
5.468262308642144e-05
5.513991425415892e-05
5.578268136610287e-05
5.667161437600446e-05
5.782813295996244e-05
5.858579361273842e-05
1.3261609017039327e-06
1.7065259035243118e-06
2.55486119951223e-06
3.674225067551804e-06
5.043270159495569e-06
6.654426191408192e-06
8.501131071655667e-06
1.0575340535029453e-05
1.2865558577747474e-05
1.5355083244750527e-05
1.802065602545399e-05
2.083171998236773e-05
2.3750437481637398e-05
2.6732551220587984e-05
2.972906090645535e-05
3.268856522466395e-05
3.556001636739682e-05
3.829556479943485e-05
4.085314516088952e-05
4.319853281039043e-05
4.530664947601392e-05
4.716209294608714e-05
4.875890095075382e-05
5.00997253022639e-05
5.119460195939003e-05
5.2059536358245e-05
5.271507491314433e-05
5.318506581960928e-05
5.349563092204396e-05
5.367450499837814e-05
5.375068894065959e-05
5.375446489370508e-05
5.371773767779797e-05
5.367470638249313e-05
5.366282968155218e-05
5.3724106109495454e-05
5.39066740814222e-05
5.426659844510001e-05
5.4867376751977247e-05
5.574238424452807e-05
5.634554258615411e-05
9.7232464602192e-07
1.3411280627219314e-06
2.182631217942644e-06
3.3155122521362654e-06
4.718230026271587e-06
6.383545977225912e-06
8.306707917564536e-06
1.0481937243024664e-05
1.2899527870770534e-05
1.5543284704160133e-05
1.83885157102114e-05
2.1400847507698374e-05
2.4536117235578206e-05
2.774145893290252e-05
3.0957585057354094e-05
3.412202287868351e-05
3.7172949312328504e-05
4.005308650870129e-05
4.271317665350267e-05
4.5114582545460894e-05
4.723077335633621e-05
4.904763441004483e-05
5.0562742774012755e-05
5.17838647669511e-05
5.272700334741898e-05
5.34143085931303e-05
5.3872106556412885e-05
5.412923475960026e-05
5.421580046618941e-05
5.4162391266224634e-05
5.3999750671644734e-05
5.375888518087928e-05
5.347157153665919e-05
5.317121741331542e-05
5.289407159783014e-05
5.268075095600982e-05
5.2578112772863656e-05
5.2641500148384256e-05
5.293564484686797e-05
5.3507179536617826e-05
5.394218921281014e-05
6.568242305747384e-07
1.0042314634462768e-06
1.8223919282492175e-06
2.952939303253691e-06
4.374140040371845e-06
6.08050731442771e-06
8.070827079521321e-06
1.0343322980423782e-05
1.2891672404090563e-05
1.5701327468850062e-05
1.874656157396778e-05
2.1988607962019155e-05
2.5375306657418466e-05
2.8842498147844436e-05
3.231715984024497e-05
3.572200205722871e-05
3.898090703721542e-05
4.2024416861310576e-05
4.479446456230409e-05
4.7247702637954815e-05
4.935707477124873e-05
5.1111665347676896e-05
5.251509826795596e-05
5.3582972869917835e-05
5.4339841200732704e-05
5.4816195244932674e-05
5.504581021059027e-05
5.5063627067356114e-05
5.4904291467419686e-05
5.460133715301986e-05
5.418695199821292e-05
5.36922782427536e-05
5.314814634078895e-05
5.258621215872294e-05
5.20404396031377e-05
5.15489317355951e-05
5.1156096481010995e-05
5.091498574203226e-05
5.088929020546049e-05
5.113590440838786e-05
5.1389781443481306e-05
3.989527713593889e-07
7.110976974219058e-07
1.4839923567813454e-06
2.5897900644318036e-06
4.007673492539587e-06
5.735821581707678e-06
7.778471038557591e-06
1.0140215985211744e-05
1.2820380956592736e-05
1.5807833796377096e-05
1.9076607702277397e-05
2.258298880107277e-05
2.6264674535914485e-05
3.0042517280895477e-05
3.3824904401966234e-05
3.751440899737966e-05
4.1015675445032736e-05
4.424334739910373e-05
4.712862192315042e-05
4.96234909406141e-05
5.170222346040564e-05
5.3360244415474436e-05
5.461102939822382e-05
5.548186996209919e-05
5.600929788893289e-05
5.623487552363969e-05
5.6201694869751426e-05
5.5951867486212814e-05
5.552492488224584e-05
5.495712032537649e-05
5.4281446737752515e-05
5.352823903418851e-05
5.272626318421834e-05
5.1904183585343226e-05
5.109238613228904e-05
5.032515978608726e-05
4.964323064731019e-05
4.909672157196065e-05
4.8746671783528305e-05
4.865861380443963e-05
4.8718919127173477e-05
3.7065986021129544e-06
5.44888486578715e-06
9.993748457794583e-06
1.952237379303727e-05
2.3328655470129306e-05
3.1470116928659526e-05
3.5590478569575587e-05
4.332803993091898e-05
4.672401706599791e-05
5.218180018106577e-05
5.417415862054636e-05
5.567585282572391e-05
5.6715240646062256e-05
5.7335503873196916e-05
5.7588222797025076e-05
5.752782813658857e-05
5.219179540950582e-05
5.113456588087741e-05
4.729947614301145e-05
4.6652378506557016e-05
4.612852177318916e-05
2.2444623379004486e-07
5.060742846169911e-07
1.2295559432493974e-06
2.3011744309910636e-06
7.540197784368709e-06
1.281639413653531e-05
1.600143206183988e-05
2.7344257971476427e-05
3.9582572327011e-05
4.9691806399531164e-05
5.720744458927035e-05
5.667613835130139e-05
5.5977518708657125e-05
5.514934894348652e-05
5.422405459638162e-05
5.322975626901528e-05
5.008369115974589e-05
4.9068516125168874e-05
4.812508145901707e-05
4.625336825396118e-05
1.3987450604264036e-07
3.8218900038274807e-07
1.0438044785524495e-06
2.06403525056873e-06
3.4287243415998077e-06
5.145138656761956e-06
7.231333310882745e-06
9.7078057689325e-06
1.2588556592802278e-05
1.5872436172291976e-05
1.9535331427945725e-05
2.3524435311060707e-05
2.775598274385434e-05
3.211767508964507e-05
3.6476244186168296e-05
4.068944475570247e-05
4.462041483674622e-05
4.815160841124655e-05
5.119554506843739e-05
5.370041607183324e-05
5.565025145671146e-05
5.70604419660564e-05
5.7970354292831444e-05
5.843490963654172e-05
5.851663641609823e-05
5.827917446974798e-05
5.778262786416343e-05
5.708076341500125e-05
5.621975880187053e-05
5.52381822546082e-05
5.4167812157095785e-05
5.303504373144388e-05
5.186267355087252e-05
5.0671986629836956e-05