# vtk DataFile Version 2.0
time_10.vtk
ASCII
DATASET UNSTRUCTURED_GRID
POINTS   4141  float 
1.225135360838749e-05         -1.347821967215662e-16        0.0                           
0.24999999999999917           1.158258066193477e-05         0.0                           
0.5000112117326936            -7.587479210692251e-16        0.0                           
0.75                          1.038523881860798e-05         0.0                           
1.0000099256456965            -2.4115471444209723e-16       0.0                           
1.25                          8.906275355867055e-06         0.0                           
1.5000083445257135            6.1281653769741044e-18        0.0                           
1.7499999999999987            7.114605161275043e-06         0.0                           
2.000006446563499             4.611126515360244e-18         0.0                           
2.2499999999999996            5.0071734217840045e-06        0.0                           
2.5000042379677945            7.526089494278645e-17         0.0                           
2.750000000000002             2.608825396302412e-06         0.0                           
3.0000017543249857            -3.8233511311897333e-17       0.0                           
3.25                          -1.437698109153232e-16        0.0                           
3.499999018655216             -3.16248706213084e-16         0.0                           
3.75                          -2.9634452917716957e-06       0.0                           
3.9999960245932886            1.361213393976056e-17         0.0                           
4.25                          -6.044144122108111e-06        0.0                           
4.4999929004906045            -5.278033704130436e-17        0.0                           
4.75                          -9.24878010262051e-06         0.0                           
4.99998965814143              1.1258387812776554e-16        0.0                           
5.25                          -1.2564825910858652e-05       0.0                           
5.499986304412505             -9.328504207056431e-17        0.0                           
5.750000000000005             -1.6000251663663405e-05       0.0                           
5.999982823044109             -1.890375264977948e-16        0.0                           
6.25                          -1.958842600715978e-05        0.0                           
6.499979172237844             -4.0579434813485695e-15       0.0                           
6.75                          1.2218043239208838e-05        0.0                           
7.00001189540106              9.322942102563582e-07         0.0                           
7.250000994275402             1.11796409906781e-05          0.0                           
7.500010781496664             1.129775365910503e-06         0.0                           
7.750001202522554             9.894028749717305e-06         0.0                           
8.000009401358493             1.3557442614179808e-06        0.0                           
8.250001435231393             8.312317713051337e-06         0.0                           
8.50000771467045              1.5974244661697447e-06        0.0                           
8.750001679131408             6.4125566600899135e-06        0.0                           
9.000005708877485             1.8413985325313828e-06        0.0                           
9.250001921085927             4.2006040023170605e-06        0.0                           
9.500003398602132             2.0755804889395675e-06        0.0                           
9.750002149633                1.7066858485872797e-06        0.0                           
10.000000818023496            2.289719495174027e-06         0.0                           
2.3669304781634807e-06        0.29999895367485374           0.0                           
0.24999798163553333           0.30000250339302303           0.0                           
0.5000025634029415            0.2999959771777108            0.0                           
0.7499949500547144            0.3000026787305365            0.0                           
1.0000027342841586            0.29999285226782646           0.0                           
1.2499917834155314            0.30000284235461067           0.0                           
1.500002895553434             0.2999896086710404            0.0                           
1.749988503138682             0.30000300231507704           0.0                           
2.00000305678162              0.29998625439551424           0.0                           
2.2499851096811683            0.3000031702628611            0.0                           
2.5000032302392574            0.2999827733580239            0.0                           
2.749981578308927             0.300003358987121             0.0                           
3.0000034286147255            0.29997912363359736           0.0                           
3.2499778589194728            0.3000035802083375            0.0                           
3.5000017464741924            0.3000117967973025            0.0                           
3.7500114527875033            0.30000198624856256           0.0                           
4.0000021184219365            0.3000106859850649            0.0                           
4.250010258552129             0.30000240372790743           0.0                           
4.5000025550975185            0.3000093062959689            0.0                           
4.750008778753161             0.3000028703948071            0.0                           
5.000003032285656             0.3000076167037162            0.0                           
5.25000698160901              0.30000335949250434           0.0                           
5.500003522873384             0.30000560434540746           0.0                           
5.750004863523016             0.30000384476090836           0.0                           
6.000004001723308             0.30000328265090137           0.0                           
6.250002444986323             0.30000430475049333           0.0                           
6.500004450480169             0.30000067948804454           0.0                           
6.749999756631121             0.3000047366706531            0.0                           
7.000004873961273             0.29999783938206864           0.0                           
7.249996847640388             0.30000512648979333           0.0                           
7.500005244439891             0.29999480848861143           0.0                           
7.749993765138043             0.3000054698627537            0.0                           
8.000005578634157             0.29999163749348734           0.0                           
8.249990554870537             0.3000057918173431            0.0                           
8.500005897845446             0.29998835395761303           0.0                           
8.749987235503754             0.3000061132437673            0.0                           
9.000006224515722             0.2999849597225754            0.0                           
9.249983800235198             0.3000064590589364            0.0                           
9.500006584239967             0.29998143018082324           0.0                           
9.749980215516537             0.3000068548915234            0.0                           
10.000007001942611            0.299977714587218             0.0                           
1.1951232269979886e-05        0.6000026130188386            0.0                           
0.25000278676243554           0.600011290403272             0.0                           
0.5000109227241712            0.6000031725461094            0.0                           
0.7500033825423669            0.6000101001231577            0.0                           
1.0000096410226715            0.6000038303333838            0.0                           
1.250004065222332             0.6000086193626878            0.0                           
1.5000080547500856            0.6000045493184802            0.0                           
1.750004795435205             0.6000068155674384            0.0                           
2.000006141093427             0.600005288374099             0.0                           
2.2500055324543675            0.6000046849802014            0.0                           
2.5000039051647036            0.6000060098988818            0.0                           
2.750006241427112             0.6000022478521452            0.0                           
3.0000013730334514            0.600006687935179             0.0                           
3.2500069029599397            0.5999995411354605            0.0                           
3.499998588752549             0.6000073138607778            0.0                           
3.750007507275184             0.5999966191892361            0.0                           
3.9999956051971894            0.6000078700935809            0.0                           
4.250008041710736             0.5999935278267583            0.0                           
4.4999924676315075            0.6000083711019395            0.0                           
4.750008531096652             0.5999903097588295            0.0                           
4.9999892133279715            0.600008847775947             0.0                           
5.250009007136867             0.5999869861169216            0.0                           
5.4999858545684885            0.6000093350392494            0.0                           
5.750009506531883             0.5999835510417103            0.0                           
5.999982376199124             0.6000098719367026            0.0                           
6.250010068655693             0.5999799706836468            0.0                           
[...]
POINT_DATA  4141
SCALARS Con float 1
LOOKUP_TABLE default
2.4441181594219617e-05
2.6197245080943285e-05
2.9671745121139195e-05
3.372411977900406e-05
3.829316511662178e-05
4.3390227401698596e-05
4.902379224621945e-05
5.51934416645276e-05
6.188895210482307e-05
6.909012274626644e-05
7.676700356068885e-05
8.488048540306227e-05
9.338319195637739e-05
0.00010222056973941447
0.0001113320024146726
0.00012065164649586187
0.0001301088480558986
0.00013962757936014698
0.0001491444388581918
0.0001587432676090756
0.00016947516791142482
0.000180224696262561
0.00018990483944908196
0.0001991064849507058
0.00020829352726543056
0.00021743883224023685
0.00022655588732529294
0.00023566979216887676
0.0002448227029214946
0.00025407072875295095
0.0002634823010719831
0.00027313677536928944
0.0002831232326452699
0.00029353938805204096
0.00030449050743642993
0.0003160882786463746
0.0003284494430218542
0.0003416921684051154
0.00035590354168055476
0.00037069968199536914
0.00037922094207591185
2.4803656023750608e-05
2.6600104636537197e-05
3.0144254638401427e-05
3.427157205543691e-05
3.89210102276228e-05
4.4102479779723416e-05
4.982303670313394e-05
5.6080752017706704e-05
6.286388318243396e-05
7.01507660667379e-05
7.791012463109305e-05
8.610176808959779e-05
9.467764693296307e-05
0.00010358324167776213
0.00011275928700282
0.0001221440899211411
0.00013167709197830834
0.00014131029831832088
0.0001510268749673435
0.00016106259564993263
0.00017119948248938555
0.00018115946720590297
0.00019082438299950768
0.00020032095074570095
0.00020961188039448427
0.0002188041352891211
0.00022793688242819107
0.0002370536558272508
0.0002462053118330359
0.00025545327354631325
0.00026486957455157205
0.00027453633986062323
0.00028454498166508545
0.0002949952837988537
0.000305994413172566
0.00031765583153133144
0.00033009793376113076
0.00034344045532894374
0.0003577714536196837
0.0003727134403153757
0.0003813286418856337
2.4597077361573113e-05
2.6393018409974743e-05
2.994507090975736e-05
3.40907153232701e-05
3.8767477760905175e-05
4.398471613073694e-05
4.9748732675206637e-05
5.6056789128682186e-05
6.289631550298336e-05
7.02448664795764e-05
7.807052694432222e-05
8.633276870754048e-05
9.498379594893513e-05
0.00010397046757944223
0.00011323707149104902
0.00012272950415638688
0.00013240300777215929
0.00014223112026078195
0.00015224651877442148
0.00016218696747686908
0.00017169311769382853
0.00018116980063852755
0.00019091751892480767
0.000200524529493578
0.00020993648882400458
0.00021918239953147442
0.00022832367630057446
0.0002374157089665041
0.000246518318509784
0.00025569853054183817
0.0002650322334796041
0.00027460448117900584
0.0002845092170384388
0.00029484866176309035
0.00030573251776493186
0.00031727701521073044
0.0003296036358948718
0.00034283556130815414
0.0003570651375902621
0.00037191687251782657
0.0003804833435870923
2.4239319620985643e-05
2.6038330911714816e-05
2.9605198756539048e-05
3.3781256786050296e-05
3.850355157005629e-05
4.378031826782498e-05
4.9616594432853805e-05
5.600824310585365e-05
6.294122856291856e-05
7.039163764972554e-05
7.832616882508497e-05
8.670310077017869e-05
9.547377860521426e-05
0.00010458468042983604
0.0001139801090736988
0.00012360553197620397
0.00013340955637358495
0.00014334412612590454
0.00015329073300372975
0.00016309939821116165
0.00017275596408065198
0.00018230860910375683
0.00019182626018104135
0.00020133358117396496
0.00021070889638187185
0.00021993095666961876
0.00022902672100987592
0.00023804610579335135
0.000247049345717081
0.00025610608648004744
0.0002652952564812809
0.00027470506751454125
0.00028443275041053833
0.0002945840630747968
0.0003052726250271941
0.0003166190759375402
0.00032874991387769523
0.00034179405561978685
0.0003558503188329846
0.00037055387690384796
0.00037904814293682643
2.373347807853783e-05
2.5536998755657053e-05
2.9125710087005644e-05
3.334554239976836e-05
3.813268156209818e-05
4.3493818023023395e-05
4.943214587130644e-05
5.594148364386431e-05
6.300559779035659e-05
7.059826703620675e-05
7.868379530399874e-05
8.721797791414439e-05
9.614950170376221e-05
0.00010542170424630929
0.00011497445594238544
0.00012474527085924833
0.00013466841798267119
0.00014466197252816223
0.00015463325555823676
0.00016450487467597425
0.00017423300571793213
0.00018383374474652733
0.00019333476441994174
0.0002027272602775746
0.00021199586320657906
0.00022111675963900682
0.0002301015343423999
0.00023898795922737358
0.0002478319128600791
0.00025670249401445395
0.00026568020524963117
0.0002748560130875583
0.0002843307272436218
0.00029421440620696693
0.000304625717242389
0.00031569117733414476
0.0003275440954592069
0.00034032124474248375
0.00035413076643760297
0.0003686224345112651
0.0003770121958000923
2.307497761568679e-05
2.4885150807964515e-05
2.850352218741377e-05
3.278134385669639e-05
3.765355912169176e-05
4.312478184828268e-05
4.9195765402106827e-05
5.585760495047532e-05
6.309109526171675e-05
7.086680050861385e-05
7.914554044026184e-05
8.787927160857762e-05
9.701230542805263e-05
0.00010648271285692006
0.00011622357662415938
0.00012616360206081314
0.0001362257328797579
0.00014632859322958724
0.00015639218498352087
0.00016634921410300983
0.00017616015245960898
0.00018580988132319186
0.0001952965223643165
0.00020461924962477076
0.00021376985317601648
0.00022274823551329391
0.00023156759683667802
0.00024026200963479032
0.0002488841194775315
0.00025750217983634954
0.00026619781485438885
0.00027506463420467906
0.00028420730832931496
0.000293740843486124
0.00030378993985412443
0.00031448830508407457
0.0003259777132000011
0.0003384048445265537
0.0003518896891718148
0.00036610108053304873
0.0003743520419677958
2.2259168263175086e-05
2.4078565345514925e-05
2.7735360295739432e-05
3.208642757172392e-05
3.706501147128299e-05
4.267309332855857e-05
4.890837488283638e-05
5.575855469745273e-05
6.320069722254499e-05
7.120127621547084e-05
7.97166065165406e-05
8.869362905048244e-05
9.807099556334182e-05
0.00010778032883349204
0.00011774747696567374
0.0001278935613755482
0.00013813660502786198
0.00014839442439138262
0.00015859008422845332
0.00016865930264866417
0.00017855523683354575
0.0001882494654259087
0.00019772707750809345
0.00020698055290646974
0.00021600883164064384
0.00022481852498804804
0.00023342966326328325
0.00024187816064440466
0.00025021698634350713
0.0002585150788480467
0.00026685590204216756
0.00027533618794895327
0.0002840649875924643
0.00029316294632808043
0.00030276171640960153
0.00031300338605643266
0.0003240397145503892
0.0003360291915337519
0.00034910613179725547
0.0003629630326179707
0.00037103735537809447
2.12818706460804e-05
2.311350506059829e-05
2.68183950022217e-05
3.125900614642646e-05
3.636634442583397e-05
4.213917665334876e-05
4.857155994803931e-05
5.5647168495007685e-05
6.33386417749822e-05
7.160758091127197e-05
8.040490627149266e-05
8.967157756346482e-05
9.933964056342504e-05
0.00010933355712212655
0.00011957176606946138
0.00012996861061878923
0.00014043685738365577
0.00015089125032487745
0.0001612530515844332
0.0001714546525787122
0.00018144306624362063
0.00019118071632530422
0.00020064404442163161
0.0002098214824406971
0.00021871218376867213
0.00022732706665767402
0.00023569043097153522
0.00024384188253423762
0.00025183701240490635
0.0002597472592067594
0.0002676591347312892
0.000275673354072265
0.00028390407682953375
0.0002924783292748089
0.0003015355763760008
0.0003112273560252605
0.0003217167616738521
0.0003331758293900791
0.0003457555360781777
0.0003591768108817425
0.0003670325050385081
2.0140363851259784e-05
2.1987560573992527e-05
2.575092618905802e-05
3.029823560402464e-05
3.555763720943319e-05
4.152409940462128e-05
4.818749018128338e-05
5.55269129364903e-05
6.350999712323022e-05
7.209280167847756e-05
8.122009045086645e-05
9.082599854583818e-05
0.00010083511246713847
0.00011116396452011546
0.00012172297409606344
0.00013241888643631406
0.00014315781353953992
0.00015384886458309454
0.00016440812492251485
0.00017476242982931154
0.00018485215277406984
0.00019463260083235718
0.00020407406705175125
0.00021316123800191311
0.00022189282551046035
0.00023028171024430197
0.0002383556878897559
0.00024615814399136875
0.0002537484609917565
0.00026120191226177965
0.00026860922783398237
0.00027607603797667914
0.0002837223855957243
0.0002916823865581866
0.00030010406679741925
0.00030914929773814267
0.00031899363421870544
0.0003298241541582296
0.00034181063680648006
0.0003547073464314281
0.0003622976249569604
1.883455717645213e-05
2.0700700264519028e-05
2.453318058934467e-05
2.920474258248546e-05
3.463999970050465e-05
4.082956244181424e-05
4.775865001647315e-05
5.540138191949027e-05
6.371993023495396e-05
7.266427358630522e-05
8.217234588525455e-05
9.217063983377825e-05
0.00010257533213993886
0.00011329396422708801
0.00012422770742470156
0.00013527420534352016
0.00014633095149323676
0.00015729905395572513
0.00016808709278529315
0.00017861464757234894
0.00018881507509266784
0.00019863727319202734
0.00020804647510374043
0.00021702441385686787
0.00022556922238497004
0.0002336954053533688
0.00024143390320797555
0.0002488321557522465
0.0002559540479229114
0.000262879657874682
0.00026970489030772463
0.0002765411157036001
0.0002835149247744189
0.000290768088596022
0.00029845773372694874
0.0003067566840129524
0.00031585377388430993
0.0003259522902920731
0.0003372426522061015
0.0003495174260872085
0.0003567901962978794
1.736840699023719e-05
1.9256503199615687e-05
2.3168214906061357e-05
2.798117039895178e-05
3.3615755023629896e-05
4.005772564613201e-05
4.7287345065920787e-05
5.5273518986524584e-05
6.397270060307485e-05
7.332839573646617e-05
8.327110125977168e-05
9.371880250991465e-05
0.0001045781198972866
0.00011574617172813036
0.00012711315386084392
0.00013856558386580195
0.0001499900695863017
0.0001612773784212147
0.00017232648992124942
0.00018304827023818326
0.00019336845992544218
0.0002032297552276564
0.00021259302547609513
0.00022143778079454477
0.00022976217486547702
0.00023758274072464334
0.00024493401505781696
0.00025186808495712205
0.000258454112906626
0.0002647778328841957
0.0002709411294840549
0.0002770617643476854
0.00028327335017318695
0.0002897256292354837
0.0002965850588528273
0.00030403566787554683
0.00031227997211939626
0.0003215381856832432
0.00033202278549053385
0.0003435695698570799
0.0003504671182286065
1.5751563353064206e-05
1.7663576063382055e-05
2.1662893731575245e-05
2.6632695681149035e-05
3.2488492139764255e-05
3.9210828211123684e-05
4.677492659853016e-05
5.514451772771062e-05
6.427032813427662e-05
7.408917610371313e-05
8.452358040473189e-05
9.54820619160179e-05
0.00010686027631595231
0.00011854306574500314
0.0001304074050374772
0.00014232614764524382
0.000154172350158007
0.00016582388231385376
0.0001771679520425532
0.0001881051962206027
0.0001985530105916402
0.0002084479506147858
0.00021774714504996205
0.00022642885227037134
0.00023449232779076924
0.00024195723439926958
0.0002488627870437415
0.00025526679584795316
0.0002612447233057909
0.00026688888313097456
0.00027230786862633764
0.00027762631848683435
0.0002829850899933896
0.0002885418798860322
0.00029447230350254075
0.0003009713671137705
0.000308255131679321
0.00031656089238506273
0.0003261240360338536
0.00033682834393183213
0.0003432872979437234
1.4001224398219728e-05
1.593711094322127e-05
2.0028899337785658e-05
2.516745698612504e-05
3.12629277652056e-05
3.829051122526519e-05
4.6220651828334324e-05
5.5012322871684346e-05
6.461086088904853e-05
7.49464245993693e-05
8.593309095365847e-05
9.746883462934019e-05
0.00010943660148025688
0.00012170657736835902
0.0001341396280458317
0.0001465917378049121
0.00015891915270714377
0.00017098382677058912
0.00018265872783754502
0.0001938325743159516
0.00020441364025725135
0.00021433244648009516
0.00022354324373695156
0.00023202442391944547
0.00023977803017389846
0.0002468286448739184
0.00025322192188654804
0.0002590229953096855
0.0002643150218179799
0.0002691979686438931
0.00027378785863626875
0.0002782165283083076
0.00028263200327619713
0.0002871995152510865
0.0002921031509821775
0.0002975480695103039
0.00030376308719580746
0.0003110020199350661
0.00031952330824658624
0.00032926311739810474
0.0003352147407580967
1.2144106391355482e-05
1.4100490520853086e-05
1.8283667364679806e-05
2.3596801156590988e-05
2.9944474016046602e-05
3.7296773329312117e-05
4.5620107067930985e-05
5.486964336697125e-05
6.498614654817799e-05
7.589348548578336e-05
8.749694268219567e-05
9.968269749564803e-05
0.00011231878061562408
0.00012525764002959295
0.00013834026181217576
0.00015140162165353847
0.0001642770173962308
0.00017680876024259433
0.00018885262189141923
0.00020028347787730383
0.00021099973427262796
0.000220926257412568
0.00023001578122183692
0.00023824889854733844
0.00024563293083675655
0.0002522000073430399
0.00025800473644206444
0.00026312182215773556
0.00026764390803055333
0.0002716799106119958
0.0002753539928747713
0.00027880532323093494
0.0002821886711334699
0.0002856758823168024
0.0002894582038024138
0.0002937494081806096
0.00029878947629840755
0.0003048473523560956
0.00031220380989136376
0.0003208512589486922
0.000326222206045142
1.0218346907036239e-05
1.2186774073388178e-05
1.6451114692008615e-05
2.1935228002115834e-05
2.853844673777318e-05
3.6226482323859084e-05
4.4963115202383064e-05
5.470140137682225e-05
6.537903250944753e-05
7.691444346958221e-05
8.920393462659388e-05
0.00010212041614135288
0.0001155141677420115
0.00012921581874888376
0.0001430414788882995
0.00015679963630317324
0.00017029924896866389
0.00018335823476802268
0.00019581153499408573
0.00020751801234691607
0.00021836561040868287
0.00022827447431749797
0.00023719801125746972
0.00024512212440037944
0.00025206300320727214
0.00025806402116931886
0.0002631921913386416
0.0002675347301948211
0.000271196042485736
0.0002742954810871058
0.00027696603400231726
0.0002793540851497147
0.00028162028848275196
0.0002839415833565064
0.0002865143273224856
0.0002895584817172127
0.0002933226672691214
0.00029808857783624533
0.00030415767002114625
0.0003115816808694428
0.00031629528395375517
8.275023227944634e-06
1.0239789133534388e-05
1.4561940284390412e-05
2.0199942411031084e-05
2.704887698513978e-05
3.507147308149882e-05
4.423116792703124e-05
5.4481621673814704e-05
6.575997395507877e-05
7.798078165299027e-05
9.103142685286146e-05
0.00010476976470320415
0.00011902460074723636
0.00013359928022498458
0.00014827826244710862
0.00016283618076937839
0.0001770484786266228
0.00019070250289110314
0.0002036078642407486
0.00021560499875320708
0.00022657119790226091
0.00023642374660068303
0.0002451202421128044
0.00025265649981728877
0.0002590627096251491
0.00026439854653885085
0.0002687480045196935
0.00027221456190369616
0.0002749171176930942
0.00027698709783278524
0.0002785668675522112
0.0002798095489438753
0.00028088028294509363
0.0002819588843450107
0.00028324390359429045
0.00028495803766768704
0.00028735480972941603
0.00029072524618911286
0.000295388701046882
0.00030145865072353707
0.00030543690251904227
6.378759809191091e-06
8.314381159022014e-06
1.265328634399208e-05
1.840991380907877e-05
2.5477039038107294e-05
3.3816340530016534e-05
4.339436855856445e-05
5.416977941479621e-05
6.608310270480261e-05
7.904757896461928e-05
9.294209820862329e-05
0.00010760727760130459
0.00012284551108435258
0.00013842541244708326
0.00015409052719497985
0.0001695715460051883
0.0001846007021405797
0.00019892665087417908
0.00021232805803432652
0.00022462439943013107
0.0002356829231988355
0.000245421461394322
0.0002538073241754169
0.0002608530306562387
0.00026660994211989117
0.0002711608733666762
0.00027461268189394987
0.00027708969786115905
0.00027872843380655904
0.00027967402653490653
0.00028007844542602995
0.00028010053971853807
0.00027990783429787875
0.0002796800127432913
0.0002796140058796989
0.00027993069380044603
0.00028088331669089747
0.00028276685915408316
0.00028591550428240194
0.0002905055984179008
0.0002936715954419926
4.607031070441685e-06
6.4753423559815995e-06
1.0767333749331152e-05
1.6584975883651943e-05
2.3820120146230078e-05
3.2435900192041084e-05
4.240804675651078e-05
5.37068479701824e-05
6.628205467336155e-05
8.004952314993065e-05
9.488067109450993e-05
0.00011059624948097445
0.00012696566922257207
0.00014371262114487576
0.00016052689076454448
0.0001770812536854549
0.00019305146335881843
0.00020813668124874726
0.00022207768336336364
0.00023467057593142357
0.0002457746779411498
0.0002553142795802586
0.000263274958982625
0.0002696958207869152
0.0002746593416252632
0.0002782804565168078
0.00028069625590318583
0.00028205726817202663
0.000282520914559174
0.0002822473610548043
0.00028139778525859726
0.0002801349146932925
0.00027862565543511326
0.000277045618645518
0.00027558543488924014
0.0002744587964293644
0.00027391226729625204
0.00027423709765809064
0.0002757740304691211
0.0002787690975152734
0.000281051266840417
3.0453121503978074e-06
4.793853296809462e-06
8.951049048640415e-06
1.474570950247398e-05
2.2068793985769275e-05
3.089213992139143e-05
4.120950155673026e-05
5.3011787779706144e-05
6.62662593802003e-05
8.089733927433262e-05
9.677108844314696e-05
0.00011368541721381517
0.00013136809472091008
0.00014948389180381017
0.0001676508640470488
0.00018546428133429523
0.00020252500779251222
0.00021846824740227416
0.0002329883565485144
0.0002458563920118037
0.0002569285329280169
0.0002661454541910885
0.0002735240968141487
0.0002791443705855531
0.0002831333960995067
0.00028564977620798023
0.0002868696413045523
0.000286975570833809
0.00028614887767265483
0.0002845652699022873
0.0002823936096092797
0.00027979741727841644
0.0002769387292362782
0.00027398402521944075
0.0002711120269348497
0.0002685232726227735
0.000266451526636126
0.0002651760646674323
0.0002650322149253179
0.00026631995705470604
0.0002676502938929077
1.7936503648928255e-06
3.3492582658587533e-06
7.255558997729305e-06
1.2909094373880392e-05
2.020582604812314e-05
2.9135842088486023e-05
3.972080976664842e-05
5.1984500358175475e-05
6.592348529607867e-05
8.147998467927423e-05
9.851892487571366e-05
0.00011681253639719793
0.0001360358188262517
0.0001557754079282638
0.00017555232223332993
0.0001948564928263149
0.00021318803889880397
0.00023009865088380812
0.00024522605820212056
0.00025831642854555985
0.0002692323568941787
0.00027794725198692776
0.0002845293060834766
0.00028911943068913427
0.0002919074306533947
0.00029310988132629537
0.0002929518622654021
0.00029165363114397753
0.00028942226097200313
0.00028644788004326965
0.00028290368706738295
0.0002789491161482584
0.0002747354586266401
0.00027041358386338467
0.0002661434862128022
0.0002621057462278376
0.00025851483602679873
0.000255634724415216
0.0002537868623641494
0.0002533166028955869
0.0002536300491787465
1.8681629243743123e-05
2.767962836798045e-05
5.125350260878742e-05
0.00010087333607840987
0.00012073235241713966
0.00016325889182633763
0.00018480419821367047
0.00022530581149274895
0.0002431013701416637
0.0002717350609944143
0.00028220314766217076
0.00029010304436895593
0.0002955805034050968
0.0002988595294967732
0.0003002086822476328
0.0002999121033849721
0.0002719409493779033
0.0002663832102955558
0.0002462050077549786
0.00024279704318813455
0.00024003514095380233
9.751260538707632e-07
2.360394450790368e-06
5.9934011883416725e-06
1.1457800804759112e-05
3.851413763378347e-05
6.593343075882033e-05
8.251925899047926e-05
0.0001416999327496835
0.00020569331520428526
0.00025866540964151184
0.00029824756781170495
0.00029547204588027546
0.00029181414781200997
0.00028747214240342476
0.00028261639559098756
0.0002773948574171226
0.0002608566762479224
0.0002555160412840402
0.0002505512015503372
0.00024069397168984647
6.006178328203464e-07
1.7729513467698142e-06
5.0724267623733825e-06
1.0260871873036348e-05
1.7266506920839307e-05
2.612518775056202e-05
3.692951284202594e-05
4.978556431851796e-05
6.476619949915007e-05
8.186577408415087e-05
0.00010095915943483589
0.0001217715677683232
0.00014386640798403147
0.0001666575912629878
0.000189448734337269
0.00021149547070112407
0.00023208046808983899
0.0002505863343145359
0.0002665520131964913
0.00027970265744166215
0.00028995088108620636
0.00029737375106129397
0.0003021744758177043
0.00030463842329033354
0.0003050915669773502
0.00030386637760105553