# vtk DataFile Version 2.0
time_10.vtk
ASCII
DATASET UNSTRUCTURED_GRID
POINTS   4141  float 
0.00010640982888968958        -1.578661054571531e-17        0.0                           
0.24999999999999942           0.00010111460958770754        0.0                           
0.500098105887455             -1.3235460001338518e-16       0.0                           
0.75                          9.12643558823424e-05          0.0                           
1.0000873977525082            1.2724634651463072e-17        0.0                           
1.25                          7.870887124662731e-05         0.0                           
1.500073869794206             -5.346414227315216e-17        0.0                           
1.75                          6.318296759200338e-05         0.0                           
2.0000573364037395            -2.746334895780859e-17        0.0                           
2.25                          4.466163630275749e-05         0.0                           
2.5000378519434436            2.6122019627802387e-17        0.0                           
2.75                          2.3360357626371967e-05        0.0                           
3.000015727078357             3.959424300939608e-17         0.0                           
3.250000000000001             -7.442084169500794e-17        0.0                           
3.4999911312166536            -4.9177401751535976e-17       0.0                           
3.75                          -2.6844265002155896e-05       0.0                           
3.999963942060146             8.761917774952054e-18         0.0                           
4.25                          -5.497541433236247e-05        0.0                           
4.499935330253075             -7.804978857960826e-17        0.0                           
4.75                          -8.450525726862173e-05        0.0                           
4.999905358697576             1.0149421826481876e-16        0.0                           
5.25                          -0.00011535401818659467       0.0                           
5.4998740600936555            1.8095388097150301e-16        0.0                           
5.75                          -0.0001476136698908719        0.0                           
5.999841273448341             -1.5923370283225315e-16       0.0                           
6.25                          -0.00018158498635529037       0.0                           
6.499806630712599             -8.464648617303538e-16        0.0                           
6.75                          0.00010607002678952644        0.0                           
7.000103539304465             7.378910730988049e-06         0.0                           
7.2500080007382985            9.777658018201603e-05         0.0                           
7.500094501433788             9.343298412208418e-06         0.0                           
7.750010057342699             8.707228514519368e-05         0.0                           
8.000082889656086             1.1551409769407804e-05        0.0                           
8.250012322967104             7.353855693356964e-05         0.0                           
8.50006835923086              1.3893543708342838e-05        0.0                           
8.75001468410701              5.6988330352569604e-05        0.0                           
9.00005080352973              1.625586366627445e-05         0.0                           
9.250017029747623             3.7472339721078976e-05        0.0                           
9.500030348160548             1.853687906764663e-05         0.0                           
9.750019263780308             1.5248913406552402e-05        0.0                           
10.000007281901077            2.0652088069362514e-05        0.0                           
2.142008530856223e-05         0.29999048690159547           0.0                           
0.24998168890471054           0.30002279768659657           0.0                           
0.500023412460352             0.29996346592772544           0.0                           
0.749954087270893             0.3000246081931281            0.0                           
1.0000251914223093            0.2999348456476222            0.0                           
1.2499249964239285            0.3000263387652151            0.0                           
1.5000269086778457            0.2999048612296866            0.0                           
1.7498945765063334            0.3000280580956296            0.0                           
2.000028645068893             0.2998735567735767            0.0                           
2.249862807317124             0.30002986276603344           0.0                           
2.5000305010669988            0.2998407730416546            0.0                           
2.7498294580999216            0.3000318543150107            0.0                           
3.0000325755916126            0.29980614029181013           0.0                           
3.2497940948358783            0.3000341215102414            0.0                           
3.5000135643934525            0.30010253137812487           0.0                           
3.7500997851573916            0.30001598190328493           0.0                           
4.0000172961102525            0.3000935199303069            0.0                           
4.250089961073525             0.3000201040625736            0.0                           
4.500021582571578             0.30008191092010184           0.0                           
4.750077396352862             0.3000246467656016            0.0                           
5.000026215059657             0.3000673529072358            0.0                           
5.250061818999945             0.3000293811334139            0.0                           
5.500030962615585             0.30004973581631894           0.0                           
5.7500431979250095            0.3000340854535512            0.0                           
6.0000356140412725            0.3000291728024727            0.0                           
6.2500217051406946            0.30003858215324636           0.0                           
6.500040020453783             0.3000058913483868            0.0                           
6.749997587683589             0.30004286930827273           0.0                           
7.000044250283874             0.2999802614927741            0.0                           
7.249971258867632             0.3000468226926821            0.0                           
7.500048040403823             0.29995266473068544           0.0                           
7.7499431080046906            0.30005039750549767           0.0                           
8.00005154869228              0.29992352941348327           0.0                           
8.24991352043875              0.3000538269733077            0.0                           
8.50005496782397              0.29989307568013257           0.0                           
8.74988263682556              0.3000572902819007            0.0                           
9.000058487457197             0.29986129753479335           0.0                           
9.249850377225155             0.3000609924722485            0.0                           
9.500062315133896             0.29982796528835715           0.0                           
9.749816438119272             0.30006513437148763           0.0                           
10.000066642527079            0.29979263615737545           0.0                           
0.00010334872305694461        0.6000202887943086            0.0                           
0.25002204974425196           0.6000981220224986            0.0                           
0.5000951404242444            0.6000259006125719            0.0                           
0.750027972782783             0.6000883313036409            0.0                           
1.0000844678713012            0.600032355078112             0.0                           
1.2500346401766589            0.6000757558075189            0.0                           
1.5000708895552826            0.6000393326549959            0.0                           
1.7500417137704853            0.6000601159601812            0.0                           
2.0000542093061884            0.6000464830641741            0.0                           
2.250048848317246             0.600041377908758             0.0                           
2.5000344683215365            0.6000534910721403            0.0                           
2.75005575392392              0.6000197093216887            0.0                           
3.0000118817489314            0.6000601485125588            0.0                           
3.250062282795059             0.5999954162629054            0.0                           
3.4999868190408114            0.6000664022988716            0.0                           
3.7500683645089588            0.5999689615829688            0.0                           
3.9999597269948346            0.6000720934199334            0.0                           
4.25007388086441              0.5999407221691418            0.0                           
4.499930978729644             0.6000773545037924            0.0                           
4.75007906039601              0.5999110549820744            0.0                           
4.999900884120168             0.6000824629164315            0.0                           
5.250084182180402             0.5998801263415552            0.0                           
5.4998695313421               0.6000877158830212            0.0                           
5.750089554241249             0.5998478666061583            0.0                           
5.999836771109342             0.6000934318742973            0.0                           
6.250095492630958             0.5998139689354769            0.0                           
[...]
POINT_DATA  4141
SCALARS Con float 1
LOOKUP_TABLE default
0.0014823319265969705
0.001622431881944334
0.0019011288374252743
0.0022279059077587615
0.002598284036201099
0.0030135139459196176
0.0034745815338345465
0.00398173044461581
0.004534395425941598
0.005131195229205022
0.0057699583484081525
0.006447777065781347
0.00716108414148402
0.007905742851958305
0.00867713628958843
0.009470230460547175
0.010279617076441936
0.011099449458287702
0.011925458751176624
0.012764432142720744
0.013703283817018887
0.014654843169475911
0.015528129589508942
0.01636259249740388
0.01720344957273446
0.018048513723252745
0.018899034100058863
0.019756937876960735
0.02062546054834977
0.021508885697015704
0.022412404692519663
0.02334198675596771
0.024304264151324053
0.025306421624874537
0.026356085373661044
0.027461208165206818
0.02862994148300157
0.029870360831112802
0.031188025017369954
0.032549380247343565
0.03333041035500153
0.0015123167844108742
0.0016559466872404674
0.0019405196158267881
0.0022736453145153113
0.0026508610589496555
0.0030733040089446404
0.0035418448685434942
0.004056604821486852
0.004616894911892324
0.005221214445624218
0.005867283367959979
0.006552105114995713
0.007272056969541017
0.008023005211030878
0.008800445564431889
0.009599693791232945
0.01041617559995283
0.011246461331780722
0.012089464451178552
0.012967988212982335
0.013862678341750112
0.014746333911771426
0.015611828329845331
0.01647371466475195
0.017324973127003578
0.01817546708201587
0.019028548095749484
0.019887798227533286
0.020757235309379094
0.021641623148021906
0.02254647866691027
0.023478022476020544
0.02444309870682784
0.02544908110455506
0.026503769902187144
0.02761528049784152
0.028791916085736766
0.030041893980267475
0.031370834912041595
0.0327456106498861
0.033535208971910625
0.0014985009813290055
0.0016419310588643135
0.0019268765902449932
0.002261173711605143
0.0026402750134518656
0.003065291460267452
0.003537048772661204
0.0040556166083617635
0.00462025152417716
0.0052294010031153195
0.005880744152710635
0.006571268623700103
0.007297386373069731
0.00805509632557381
0.008840218165255832
0.00964874614158908
0.010477519653240876
0.011324919439104178
0.01219471795637651
0.013062877121090562
0.013901836251042689
0.014746845485928762
0.01562081411495542
0.01649068701279934
0.017352658989091017
0.01820820629099155
0.01906245016145517
0.019919906697471946
0.020785362433023365
0.021664076460888228
0.02256191802531956
0.023485386253354248
0.024441575299904476
0.025438107154347675
0.026483044877154974
0.027584791221212445
0.028751965731294096
0.029993120759015186
0.03131421403514565
0.032681945107353304
0.03346741389464293
0.0014743223127539288
0.0016177549844392292
0.0019034114171973392
0.0022396101608577555
0.0026218058825014778
0.0030510491747816077
0.0035280892419498676
0.0040529055359198145
0.004624656648116417
0.005241690169455108
0.005901590752893723
0.00660126685141685
0.0073370791032617115
0.0081050156189372
0.008900917866699927
0.009720758881228421
0.010560780511763044
0.01141749275921723
0.012280850520019497
0.013139020498397314
0.013990839705222004
0.014841101578185084
0.01569650841224061
0.016558659596645996
0.017417531488861666
0.018271332112656462
0.019121980001012708
0.01997343481880464
0.020830466936077763
0.021698548719793435
0.022583821152581618
0.023493081328051318
0.024433745649596477
0.025413790481157196
0.026441673508942033
0.027526237676523464
0.028676587830897483
0.02990179598481241
0.031208343708014147
0.032563684286861294
0.03334313858521505
0.0014401447312177868
0.001583577972340371
0.0018703003776052943
0.0022092406486311825
0.0025958423683045233
0.003031072420640584
0.003515566887499593
0.004049171826587207
0.004630896736857288
0.005258928110717037
0.005930679795451013
0.00664287914526908
0.00739168731699834
0.008172846081109988
0.00898182929415348
0.009813916740512
0.010664084033958084
0.011525799066774459
0.012391700781304159
0.013255539624968202
0.014114187903079346
0.014969372246870246
0.015823640362382603
0.016676583518121266
0.017526853129820497
0.01837233574898101
0.01921377841620109
0.020054031461722147
0.020897443021392948
0.02174941407425647
0.022616224746675895
0.023504936882763738
0.024423322615940164
0.025379792160771457
0.026383311946581292
0.027443307703799224
0.028569538527698272
0.02977179982759156
0.031057387873781612
0.03239509192931367
0.03316618440946112
0.0013956651539196918
0.0015391505810160272
0.0018273382023977901
0.002169911410155634
0.002562288446326447
0.003005320682769214
0.003499492709433671
0.004044471311481446
0.004639062200040646
0.005281224116494679
0.005968116458751505
0.0066961774079973896
0.0074612266180926765
0.00825857846199853
0.009083134237290437
0.009929410980125869
0.01079139007590597
0.011662658704137522
0.012536865696668478
0.013408778938907918
0.014275399694876172
0.01513571875276966
0.015989767503241492
0.016837564215628247
0.01767846141601414
0.01851231233084259
0.019339970732890607
0.020163964007735583
0.020988325860243573
0.021818363349907777
0.02266045650122686
0.023521926001239753
0.024410933472692666
0.025336394221462433
0.026307888991100953
0.027335565631763
0.028430015594494578
0.0296019864908555
0.030859909266349402
0.03217425359407398
0.03293405127005523
0.0013405947371596962
0.0014842054522217212
0.001774313431614499
0.0021214730027858055
0.002521058873218073
0.0029737734413528977
0.00347991050553711
0.004038912313906201
0.004649327571182829
0.005308823415801243
0.006014227523318778
0.006761596810263409
0.0075463066387826926
0.00836314860096775
0.009206421854015821
0.010070001636420786
0.01094746647312179
0.011832334202730556
0.012718538963043884
0.01360101586989993
0.014476092385481757
0.015341531646983732
0.016196139920985342
0.017039283962352287
0.01787078870635402
0.018691033844071305
0.019501414995512414
0.02030458313915694
0.021104575080634774
0.02190674165670696
0.022717630643007518
0.023544870534557574
0.02439707033593444
0.025283729177260305
0.026215147807880246
0.027202333817436242
0.028256885809839618
0.02939072157433665
0.03061364156033129
0.03189813303188898
0.03264334682137181
0.0012747009496302606
0.0014185301630705949
0.0017110596725125834
0.0020638164698106925
0.002472106677631113
0.0029364485940862922
0.0034569075657732546
0.004032660063525485
0.004661950661797323
0.005342099583655536
0.0060695381812222
0.006839870369122781
0.007647956841881813
0.00848801734994899
0.009353747801702847
0.010238467784992954
0.011135320113266827
0.012037563684862036
0.012938939836494504
0.01383404314272909
0.014718584950176168
0.015589454530583751
0.016444613997365343
0.01728294837363456
0.018104173886417198
0.018908919710620323
0.01969886866484945
0.020476933503539373
0.021247341780733897
0.02201564733818501
0.022788676563035817
0.023574451266225697
0.024382107240299298
0.02522181489253312
0.026104700193250847
0.027042760681627722
0.028048762567574926
0.029135983058828644
0.030315817937683443
0.03156319246913018
0.03229009088745845
0.0011978863437023819
0.0013420335776573287
0.0016375102146300175
0.0019969117905801618
0.0024154452123659304
0.002893408929400732
0.0034306062320885304
0.004025913976621956
0.00467723515897948
0.005381499068036299
0.0061346888537732675
0.006931897393026774
0.007767412368497965
0.008634831123891639
0.009527209061640816
0.01043724836613471
0.011357537998902737
0.012280842180103403
0.013200416364909547
0.014110301816082083
0.015005544188346643
0.01588230693217174
0.01673789127426767
0.017570710077407917
0.01838027970947141
0.019167249938870076
0.019933481670209512
0.02068212621412346
0.021417685076086993
0.02214602506253905
0.022874356819504067
0.023611188347613228
0.024366268162257912
0.025150525630441203
0.02597601003367062
0.02685582519500275
0.027804045928110838
0.028835482008170144
0.029963351327044557
0.031165468564266503
0.03186980216566754
0.0011102805191317625
0.001254827765523501
0.0015537595956316927
0.0019208482543328213
0.0023511665248711145
0.002844758699222902
0.003401139597942543
0.004018863681525599
0.0046954677402353175
0.005427458747340227
0.006210330198773975
0.007038611376064659
0.007905954090472195
0.00880526061471052
0.009728855701564006
0.010668704705011548
0.011616674772064697
0.012564827807314547
0.01350572102445284
0.014432683201983076
0.015340036415991845
0.016223247490776027
0.017079014102703283
0.017905308447409025
0.01870140369645629
0.019467904980286617
0.02020678645441196
0.020921429795056047
0.021616649802071657
0.022298700943351096
0.02297526326161219
0.023655414259906356
0.024349593680460534
0.025069566980875646
0.025828388984159095
0.026640365029653203
0.027520996159434624
0.028486776814790643
0.029552959223121237
0.030700722431782655
0.031377659678533905
0.0010123489190844966
0.0011573225213578468
0.0014601318339129761
0.001835874478029186
0.002279452736856613
0.0027906269119846107
0.003368608483221941
0.0040116224182274295
0.0047168312959454195
0.005480302760413047
0.006297008110874522
0.007160860493320245
0.008064800554434676
0.009000934746518209
0.009960727941635095
0.01093524730669623
0.011915448193982232
0.012892485232734808
0.013858025495860266
0.01480453793148649
0.015725537264821735
0.016615770149315808
0.017471343757939305
0.018289806623739774
0.019070196794129628
0.01981306994937008
0.020520516412164288
0.021196169052880763
0.021845202579617747
0.022474323562381767
0.02309175355142893
0.02370720929499142
0.024331884975047027
0.02497843975060178
0.025660991247147696
0.026395111713662846
0.027197813146502704
0.028087393560160243
0.029081323480633553
0.030164632580245977
0.030808715140995126
0.0009050167644458039
0.001050331020470098
0.0013572523082178935
0.0017424345379628775
0.002200576216955655
0.0027311329155828156
0.003333015467313427
0.004004134306626974
0.004741291864125673
0.005540117172153717
0.006395036171734997
0.007299290955664774
0.008245019408338787
0.009223401920040803
0.010224875627361341
0.011239409519853248
0.012256826231308643
0.013267149759410275
0.014260954107554702
0.015229687701102211
0.016165952710850324
0.017063726394978704
0.017918520767136917
0.018727485264447678
0.01948946201581465
0.020205005547896455
0.020876377786865772
0.021507527438089893
0.02210406108748899
0.022673212216117827
0.02322381398183672
0.023766281474209616
0.024312607894558646
0.024876377269910294
0.02547279327133357
0.026118719874249435
0.02683271944860763
0.027634964927155784
0.0285452844999256
0.02955304186232502
0.030158167658846543
0.0007898034061009394
0.000935181750877023
0.0012461182025424987
0.0016411948343767026
0.002114883143933843
0.0026663288475203056
0.0032941706923626194
0.003996050344286086
0.004768454106598156
0.005606596608095686
0.0065043472520288975
0.00745421893759985
0.008447435239366531
0.00947408493137918
0.010523363555332824
0.011583891809458983
0.012644091381824924
0.013692591799018107
0.014718638330221006
0.01571247188065693
0.016665656733078835
0.017571340260274126
0.01842443797128405
0.019221746113568007
0.019961990734355034
0.02064582630667573
0.021275798840880697
0.021856288151664998
0.022393443095445012
0.022895121657214
0.023370846255129175
0.023831782368394682
0.024290746435192478
0.024762245736764516
0.025262549425833954
0.025809785161048916
0.026424045738288455
0.027127386858099744
0.027942071362041604
0.02886225841070906
0.029421702547659988
0.0006689577769424012
0.0008138276239202275
0.0011281593477341053
0.0015330545665753223
0.002022754291546631
0.0025961136882928708
0.003251564508156804
0.0039865680004483916
0.00479737963993951
0.005678856286445834
0.006624316447173386
0.007625482024406572
0.00867252479747734
0.009754229860404234
0.010858275126613444
0.01197161235941924
0.013080923123846244
0.014173114383037436
0.015235814682331223
0.016257833457926817
0.017229552664070953
0.018143229943437415
0.018993204219383653
0.01977600570321713
0.020490381520606043
0.02113725447422744
0.021719635914158097
0.02224251442074325
0.022712740850285348
0.023138927826878684
0.02353137848368439
0.023902055936063885
0.024264601116140972
0.024634402910330713
0.025028720075002803
0.02546684869958675
0.025970316541302545
0.02656299046792405
0.027269564048423213
0.02808940850987025
0.028595894617454397
0.0005455774477950592
0.0006889369940363334
0.0010052774290672994
0.0014191311620807825
0.001924538021595621
0.0025201160947671813
0.0032042048727642376
0.003974231924814825
0.0048263649136721645
0.005755205759247192
0.006753552027234295
0.007812268658299639
0.008920302959226398
0.010064859930800871
0.011231736462350029
0.012405793875788251
0.01357153151274793
0.014713712195344933
0.015817985559100814
0.016871458070934556
0.017863168046145978
0.018784438234027093
0.0196290947691047
0.020393556800175804
0.021076813816389043
0.021680316593183247
0.022207812081835133
0.0226651535383404
0.023060114690218975
0.023402232884452204
0.02370270070127964
0.02397432060618444
0.024231531836352026
0.024490514653459375
0.024769372808050614
0.025088389505310563
0.025470337879283825
0.02594072606125836
0.02652658163392297
0.027232834097601986
0.027678668287718453
0.00042368460771439515
0.0005639431764285392
0.0008798470679865082
0.001300713617648738
0.0018204551204707721
0.002437549849977211
0.0031504235708543047
0.003956698026618759
0.004852680128033765
0.005832885979837196
0.006889657368515658
0.008012931781413758
0.009190211157414916
0.010406753909107488
0.011645988599062488
0.012890120525550804
0.014120877575489537
0.015320324678846755
0.01647166918775576
0.017559984276429033
0.018572792355898985
0.019500472134725708
0.020336477254480078
0.021077376933817338
0.021722747087281526
0.022274951872373792
0.022738860720143736
0.023121545214648886
0.023431995375807344
0.023680887653538877
0.02388042872143985
0.0240442913007597
0.024187651652682732
0.024327333430880935
0.024482059557497788
0.02467281249753391
0.024923292215204798
0.025260365608081082
0.025713185496592055
0.026292518874465855
0.026669805122725255
0.0003082137626546813
0.00044301770232862666
0.0007546626422714859
0.0011791809332401433
0.001710489210984739
0.0023470573251394193
0.003087660611315006
0.003930470428204472
0.004872279888510923
0.0059077810309249015
0.007028976232373411
0.008224801883401507
0.009481028968784857
0.010780477340166076
0.01210354440375619
0.013429008004659512
0.014735025667019782
0.016000225336313137
0.017204772511241365
0.018331306772603206
0.01936566515839293
0.020297344523765977
0.02111969283838896
0.021829853159797727
0.02242850929584786
0.022919496473839382
0.023309344288391747
0.023606814758853567
0.02382248804889916
0.02396843596689941
0.024058010053635604
0.02410576004461513
0.024127489377320715
0.024140448962797906
0.024163668542283676
0.02421842662030967
0.024328870305641723
0.024522726468086363
0.024831013551911574
0.02527051560280936
0.025571436003119796
0.0002048754360780994
0.0003309278908809873
0.0006328052771665434
0.0010559250368705516
0.001594298513981979
0.0022465457371829683
0.003012240834280986
0.00389063606568068
0.004879513735692299
0.005974131858899372
0.007166346845527363
0.008444025313252921
0.009790839187562938
0.011186505416432615
0.012607478837318963
0.014028043477292917
0.015421687412259024
0.016762601919589955
0.01802712889885675
0.019194995443780925
0.020250215495353448
0.021181597233573712
0.02198285476854987
0.022652374928900865
0.023192724445135187
0.023609999223257176
0.023913116198985992
0.024113135436942913
0.024222680036066323
0.02425549974408874
0.02422620422083154
0.024150176124091594
0.024043663258875206
0.023924043116039836
0.02381025134352243
0.023723370516651087
0.0236873789441306
0.023730098006064366
0.02388360071272094
0.024171378133143406
0.024388643354666735
0.000122643947429954
0.0002327164257006146
0.0005175790030381408
0.0009323421289216476
0.0014710709798610813
0.0021330103468305433
0.002919191284224717
0.003830662481696049
0.004866902929921
0.006024309740625377
0.007294913636877194
0.008665472308031058
0.0101170936160154
0.011625493950393846
0.013161921679197414
0.014694674309533659
0.01619103737374535
0.017619396450356428
0.018951245611373523
0.020162841454281516
0.02123632668917327
0.022160246460168037
0.022929481696142694
0.0235447022358678
0.024011490136798947
0.02433929589481097
0.02454037741260084
0.024628840297336325
0.02461986109276284
0.02452913897808715
0.024372592398782304
0.024166296714725727
0.023926647921386556
0.023670733093159868
0.02341689018693125
0.02318544140126216
0.02299959789102774
0.022886446895380302
0.022877865168451583
0.023002492276827644
0.023129202878756673
6.261438682920279e-05
0.00015365216190654725
0.0004124257568419835
0.0008095551257348459
0.001339503111165905
0.0020027866277807908
0.002802633862570998
0.003742857804038968
0.004825624827330417
0.006049327308998595
0.007406702979965543
0.008883440461940168
0.01045750880154346
0.012099404369226996
0.013773393445802043
0.015439665873566988
0.017057136949219075
0.018586499260569694
0.01999307189846108
0.021249047389990047
0.02233487244684026
0.02323967938163704
0.023960852787286144
0.024502938552269274
0.024876157336663658
0.025094784070173213
0.025175609365674742
0.025136635925331358
0.024996095601572323
0.0247718175611626
0.024480937818686335
0.02413991848623338
0.023764837276313795
0.023371911430364985
0.022978229946808343
0.02260268119752135
0.022267059534236706
0.021997378485926655
0.021824478966527235
0.02178105752211377
0.021810698608479756
0.0012329393936201683
0.0018949379413753396
0.003677096284186306
0.007564191712770077
0.009162140530878205
0.012668802274536078
0.014496073755795357
0.018051645275498768
0.01968031803724544
0.02243637325490977
0.02351266909660639
0.024372878763154988
0.02501906853141541
0.02546175646405458
0.02571758570528752
0.025806988504889723
0.023546971285771608
0.023028666225868466
0.021118207687774344
0.02079506215451999
0.02053273229218742
3.010448847695026e-05
0.00010640363876277505
0.00033807238578692576
0.0007147437834379523
0.0027071460038894917
0.004810510557722792
0.006108355358231252
0.010875851674125732
0.016307483115825177
0.021152313205135255
0.0257521243594059
0.0255752600949341
0.02529765686585951
0.024938952324351074
0.024516981492230513
0.024047961753518615
0.02250820517160908
0.02200237496965277
0.021530943215597235
0.02059586358784822
2.0811407907109404e-05
7.94269224113159e-05
0.0002817606378627724
0.0006335652492149931
0.0011310559209005506
0.0017778960622341052
0.002582758962830389
0.0035561917706747894
0.004707085080043548
0.006039170145727237
0.007547726228346862
0.00921693711479664
0.011018401221246251
0.012911268998643147
0.014844267711434288
0.01675950927164634
0.018597555916781985
0.020302884263908683
0.021828777031675066
0.023140829079805077
0.024218620900602866
0.025055543358446886
0.025657116292995576
0.026038344546059456
0.026220691916558528
0.026229164236346986
0.026089840291590234
0.0258280251657537
0.025467064598132434
0.025027766385979797
0.024528327693642275
0.023984657157958916
0.0234109944733849
0.022820757748415323
0.022227582479217738
0.021646543749798762
0.021095598600594078
0.020597228272721597
0.020180431629503913
0.019880644340019658
0.019759964946941145
2.309955196697777e-05
6.452210049687592e-05
0.0002392555272989601
0.0005670169779076001
0.0010443423912801593
0.0016761261864514639
0.002473621686718939
0.0034506721406481955
0.004619696022346777
0.005987532119699777
0.007551436245183989
0.009295718482093335
0.011189692336829413
0.013187597207443528
0.015230909693348432
0.017252978659955294
0.01918533001423092
0.020964501654143083
0.02253809697008434
0.023868970138305478
0.02493698315031726
0.025738384046318702
0.026283336961950964
0.02659237466170694
0.02669254670621547
0.026613875012440242
0.026386497859851546
0.026038659511608223
0.025595531787206898
0.025078751477254597
0.02450651639967297
0.023894087144326375
0.02325457180175116
0.02259991229748897
0.021942031194075583
0.021294143628630482
0.020672222863580943
0.02009681078755045
0.019594323583416985
0.019205106561263154
0.019035775190287967
3.372984819804242e-05
5.7695502876746696e-05
0.0002034358274471748
0.0005049381229177248
0.0009594345381561008
0.0015731931405205792
0.0023603499237788836
0.0033385658338223167
0.004524415831544105