# vtk DataFile Version 2.0
time_10.vtk
ASCII
DATASET UNSTRUCTURED_GRID
POINTS   4141  float 
2.434698846932493e-05         -4.898723489043126e-17        0.0                           
0.24999999999999964           2.3027850670666214e-05        0.0                           
0.5000222950573939            -1.2702178040542078e-17       0.0                           
0.75                          2.0659330180976595e-05        0.0                           
1.0000197485219098            -2.5694092209251355e-19       0.0                           
1.25                          1.7726072027429898e-05        0.0                           
1.500016610496381             -2.7378409914499592e-17       0.0                           
1.75                          1.4166073196474861e-05        0.0                           
2.0000128374851336            -4.923703566581929e-17        0.0                           
2.25                          9.973262671672947e-06         0.0                           
2.5000084419115054            -1.755376606280616e-16        0.0                           
2.75                          5.197326814306401e-06         0.0                           
3.0000034950118977            4.6414541610405285e-18        0.0                           
3.25                          -6.553466344226842e-17        0.0                           
3.4999980420734738            7.196014484978792e-17         0.0                           
3.75                          -5.912203643560584e-06        0.0                           
3.999992068665045             -4.339846664324029e-17        0.0                           
4.25                          -1.2059880349774757e-05       0.0                           
4.4999858334819525            1.637146871141753e-16         0.0                           
4.75                          -1.8457682855419168e-05       0.0                           
4.999979359426038             3.2026704059237137e-18        0.0                           
5.25                          -2.5080854708177928e-05       0.0                           
5.499972660001252             -2.605502214375941e-16        0.0                           
5.75                          -3.194547596420554e-05        0.0                           
5.9999657025881055            -6.756414590284914e-17        0.0                           
6.25                          -3.9118296316262394e-05       0.0                           
6.499958403627898             7.972745065290919e-17         0.0                           
6.75                          2.4279994989298512e-05        0.0                           
7.00002364401747              1.8388342352682567e-06        0.0                           
7.250001963387475             2.2230495958269437e-05        0.0                           
7.500021442923307             2.2355120438972203e-06        0.0                           
7.750002381543034             1.9684906087102775e-05        0.0                           
8.000018707785461             2.689018411466811e-06         0.0                           
8.250002848493052             1.6545695694799347e-05        0.0                           
8.50001535818009              3.173862730150667e-06         0.0                           
8.750003337765504             1.276908105247345e-05         0.0                           
9.000011369069746             3.6632851221673222e-06        0.0                           
9.25000382316072              8.366768788913378e-06         0.0                           
9.500006769657364             4.133173541540946e-06         0.0                           
9.750004281800406             3.3991189284234786e-06        0.0                           
10.000001628122146            4.563039477536965e-06         0.0                           
4.718302140956191e-06         0.2999979111152207            0.0                           
0.2499959723768102            0.3000049926901058            0.0                           
0.5000051133330915            0.2999919733640868            0.0                           
0.7499899237186889            0.3000053453197068            0.0                           
1.0000054571296038            0.29998573659277467           0.0                           
1.2499836027138373            0.3000056747355714            0.0                           
1.500005781891317             0.2999792600365502            0.0                           
1.7499770519445619            0.30000599697169367           0.0                           
2.000006106699286             0.2999725595131869            0.0                           
2.249970272160875             0.30000633526941944           0.0                           
2.5000064560289736            0.29996560276201195           0.0                           
2.749963213839095             0.3000067151252667            0.0                           
3.0000068551659687            0.29995830596902257           0.0                           
3.2499557768643226            0.3000071598798524            0.0                           
3.5000034402303575            0.30002344568625444           0.0                           
3.7500227667587627            0.3000039221829861            0.0                           
4.000004187672475             0.30002125076132263           0.0                           
4.250020404433362             0.30000476046359587           0.0                           
4.500005064246757             0.3000185165119306            0.0                           
4.750017469493011             0.30000569686201023           0.0                           
5.000006021631582             0.3000151610901229            0.0                           
5.250013898532188             0.30000667800550335           0.0                           
5.500007005751201             0.30001115882609564           0.0                           
5.750009684361934             0.3000076515282593            0.0                           
6.000007966480429             0.30000653647980785           0.0                           
6.250004867803788             0.3000085746684517            0.0                           
6.500008867259087             0.3000013494077427            0.0                           
6.749999509651598             0.30000944224975473           0.0                           
7.000009718232675             0.2999956863370491            0.0                           
7.249993708027685             0.30001022597572574           0.0                           
7.500010463219092             0.2999896392483995            0.0                           
7.749987556911267             0.30001091685843406           0.0                           
8.000011135853427             0.29998330953849306           0.0                           
8.249981147833676             0.30001156522351546           0.0                           
8.50001177882482              0.29997675222888937           0.0                           
8.749974517992289             0.3000122127787454            0.0                           
9.000012436925413             0.2999699708780773            0.0                           
9.249967653677746             0.30001290923675145           0.0                           
9.500013161207109             0.29996291622314913           0.0                           
9.749960487781319             0.30001370567900737           0.0                           
10.00001400132559             0.2999554868463509            0.0                           
2.3743390853742017e-05        0.6000051469878355            0.0                           
0.25000549630824104           0.600022440107393             0.0                           
0.5000217136367274            0.6000062713600414            0.0                           
0.7500066930101015            0.6000200856705515            0.0                           
1.0000191758382229            0.600007591763561             0.0                           
1.250008063069271             0.6000171487948603            0.0                           
1.5000160274867158            0.6000090342428354            0.0                           
1.750009527947868             0.6000135645193921            0.0                           
2.0000122230481496            0.6000105167768034            0.0                           
2.250011006434785             0.6000093253036409            0.0                           
2.5000077726595262            0.6000119644056736            0.0                           
2.750012429065501             0.6000044714306262            0.0                           
3.0000027281668156            0.6000133254886216            0.0                           
3.250013757378615             0.5999990764429308            0.0                           
3.4999971773796066            0.6000145831005477            0.0                           
3.7500149719424614            0.5999932489040936            0.0                           
3.999991225836661             0.6000157016587786            0.0                           
4.250016046984904             0.5999870800984642            0.0                           
4.499984963794698             0.6000167100925371            0.0                           
4.750017032315156             0.5999806553828141            0.0                           
4.999978465761299             0.6000176702661706            0.0                           
5.250017991337952             0.5999740169504785            0.0                           
5.499971756219496             0.600018651919876             0.0                           
5.750018997317182             0.5999671530107332            0.0                           
5.999964804804572             0.6000197329511455            0.0                           
6.250020128779351             0.5999599958556052            0.0                           
[...]
POINT_DATA  4141
SCALARS Con float 1
LOOKUP_TABLE default
9.505145593575041e-05
0.00010202054133342146
0.000115815044728042
0.00013191407129627022
0.00015007728762402923
0.00017035186043631674
0.0001927733482621331
0.00021734168625100016
0.00024401757859879398
0.0002727217907301309
0.0003033360494835121
0.00033570538234034986
0.0003696416601020429
0.00040492792266602927
0.00044132279484793315
0.00047856375628356235
0.0005163687378821924
0.0005544338334084046
0.0005925060075468876
0.0006309290779742988
0.0006739523973433277
0.0007170672189021712
0.0007558757391689377
0.0007927750611898431
0.000829635622968631
0.0008663476648677733
0.0009029640404970817
0.0009395839365491234
0.0009763748237692368
0.0010135600075431735
0.0010514120761139422
0.0010902472541164674
0.0011304206101410447
0.0011723216398702111
0.0012163699024025825
0.0012630104670200539
0.001312708413768675
0.001365934334809308
0.001423034590207713
0.0014824699324499457
0.0015166948437304517
9.6490177323452e-05
0.00010362086404858722
0.00011769352264318887
0.00013409203312676662
0.0001525766910036152
0.00017318894528802048
0.00019595864755225683
0.00022087969938447495
0.0002479067334628574
0.0002769546679223094
0.00030789993140443707
0.00034058323349871834
0.0003748137715239574
0.00041037476327045197
0.00044703032701896183
0.0004845347580025863
0.0005226468497912155
0.0005611759970571701
0.0006000576947034024
0.0006402450157144487
0.0006808627841879682
0.0007207878041804042
0.0007595429659667743
0.0007976363055169431
0.000834920099589222
0.000871825020401584
0.0009085077960131598
0.0009451420286775262
0.0009819303278790794
0.0010191174314902042
0.0010569904432479224
0.0010958767513194754
0.0011361408091046833
0.001178180444878337
0.001222422873916315
0.0012693203116830364
0.001319344494494283
0.0013729723308291992
0.001430554059031046
0.001490575920724006
0.001525178625265153
9.567699656704362e-05
0.00010280507426598018
0.00011690820744834768
0.00013337857529284707
0.00015197089803364994
0.00017272448788218625
0.0001956662552970932
0.0002207869329770932
0.00024803791078940955
0.00027733104951992366
0.00030854029118817166
0.00034150507779340657
0.000376035720758459
0.00041192110082316925
0.0004489397828284293
0.0004868768262783159
0.0005255549389460054
0.0005648705856250274
0.0006049580442076591
0.0006447622675357384
0.0006828305446800782
0.0007207998041148047
0.0007598880371111603
0.0007984310849203041
0.0008362068979358308
0.0008733318875962631
0.0009100524451423783
0.0009465901260647181
0.0009831837633135136
0.0010201007517241308
0.0010576437636115213
0.0010961520293788446
0.0011360002210711495
0.0011775960172595921
0.0012213768817604395
0.001267806206834812
0.001317368195847442
0.001370553636458055
0.0014277299397539003
0.0014873908973820507
0.0015217982517879032
9.426809983794111e-05
0.00010140748659430894
0.00011556784165242104
0.0001321573466154186
0.0001509289594563857
0.0001719176334955566
0.0001951453369029195
0.00022059732170110323
0.00024821922390808645
0.0002779171406961622
0.0003095595770606251
0.0003429813120252026
0.0003779893433177147
0.0004143711596521473
0.00045190552896088963
0.0004903758929623587
0.0005295782392594966
0.0005693216221336372
0.0006091304979367436
0.0006484005128962045
0.0006870759660778701
0.0007253534847416915
0.0007635131743876123
0.0008016549288976854
0.0008392861169038291
0.0008763189855989515
0.0009128604995681813
0.0009491098746020518
0.0009853075179521136
0.0010217313434294699
0.0010586962654838368
0.0010965542437655817
0.0011356932142694176
0.001176535129569979
0.0012195332543032684
0.001265168773510466
0.0013139460945253644
0.0013663790628282127
0.0014228610153418657
0.0014819282869273686
0.0015160463440120975
9.227623752121513e-05
9.943222748043364e-05
0.00011367700408620046
0.00013043798022277639
0.00014946490225177566
0.00017078672133137568
0.00019441819664756566
0.00022033655820320963
0.00024847880177202226
0.00027874193237713995
0.00031098501334067975
0.0003450330152298277
0.00038068241034831633
0.000417708198982794
0.00045587141347059874
0.0004949234951338466
0.0005346025442445911
0.0005745809425285733
0.0006144869735154315
0.0006540102830588704
0.0006929756470546963
0.0007314494682362822
0.000769544536720284
0.0008072256269070332
0.0008444298817622583
0.0008810594626164273
0.000917158906190233
0.0009528781193153592
0.0009884397176526405
0.0010241192701094448
0.0010602379625826654
0.0010971588184014198
0.0011352841968345856
0.001175053389335229
0.001216940026511946
0.001261448990568595
0.0013091121177520838
0.0013604748506313726
0.0014159679400731066
0.0014741863881097574
0.0015078862093324988
8.96836138201205e-05
9.686427595865077e-05
0.00011122372620844448
0.00012821182913526236
0.00014757366136845348
0.0001693300937832198
0.0001934863341476653
0.00022000891787375072
0.00024882314205835646
0.00027981333030140397
0.0003128247670733471
0.0003476672042255801
0.0003841197085062925
0.0004219362514146463
0.0004608506524148668
0.0005005789188553394
0.0005408135239935459
0.0005812290808270486
0.0006215053334347507
0.0006613728253014917
0.000700673694742342
0.0007393480911258871
0.0007773890650843191
0.000814793279630956
0.0008515268310570483
0.0008875877283606571
0.000923026972901902
0.0009579793495351269
0.000992654199019669
0.001027323510983648
0.0010623128709388366
0.001097995898854007
0.0011347904854819564
0.0011731558786655645
0.0012135900421542218
0.001256626856834567
0.0013028322797812642
0.0013527916454097524
0.0014069834018059894
0.0014640790288994125
0.0014972231126602004
8.647228132618192e-05
9.368732458583239e-05
0.00010819536718578624
0.00012547029101556487
0.00014525075575458194
0.00016754737688778637
0.00019235341339298318
0.0002196220574729354
0.00024926391054334743
0.0002811471477095261
0.0003150992195900091
0.00035090996969774213
0.0003883359383440581
0.0004271053452242424
0.00046692304784972776
0.0005074746310295044
0.0005484328622749379
0.0005894692641382361
0.0006302760646867626
0.0006705960235984248
0.0007102416880535448
0.0007490993185801798
0.0007871090682932833
0.0008242402739590225
0.0008604876564835706
0.0008958761916198512
0.0009304843638226909
0.0009644542266422645
0.0009979962436955888
0.0010313849866340206
0.001064953338720287
0.0010990874267313728
0.001134222778652903
0.00117084138092217
0.0012094692541642802
0.0012506741086870396
0.0012950621736557422
0.001343266390919834
0.001395822866482285
0.001451497952742429
0.0014839345559515295
8.262631162686364e-05
8.988712443455161e-05
0.00010458115595296968
0.00012220661284532928
0.00014249365331463844
0.00016544036737849824
0.00019102573842381563
0.0002191871468384976
0.0002498177678474202
0.0002827665323398877
0.00031783954010534466
0.0003548028962760538
0.000393386857282812
0.0004332910917755357
0.00047419085452923956
0.0005157446366986138
0.0005576042118663824
0.0005994288691822136
0.000640903655799455
0.0006817579032693547
0.0007217792542273189
0.0007608168235657485
0.0007987755857066361
0.0008356082038392672
0.0008713099397047534
0.0009059228796837838
0.0009395425166323733
0.0009723255977632659
0.001004492981120248
0.0010363291492866758
0.001068179151645071
0.001100445100017545
0.0011335831043683975
0.001168100903937421
0.001204556078553206
0.0012435545042801639
0.0012857481668970365
0.0013318246391560424
0.0013823871114213506
0.0014363159667739895
0.0014678765945954969
7.81357398220544e-05
8.545485125812258e-05
0.00010037492023741822
0.00011841786117668429
0.0001393029410445478
0.00016301343820719082
0.00018951192632719137
0.00021871784084406717
0.00025050463088159645
0.00028469935840455464
0.00032108376484708736
0.00035939689477141636
0.0003993393573119826
0.0004405792448009241
0.00048275983079934347
0.0005255092730710309
0.0005684527474841932
0.0006112269839085344
0.0006534962093945282
0.0006949672931329858
0.0007354009426581906
0.0007746173031101061
0.0008124962174966031
0.0008489748436480109
0.0008840462581705225
0.0009177600878099942
0.0009502255956727576
0.0009816145000136303
0.001012162723475718
0.0010421700342462664
0.001071998365711407
0.0011020695952441459
0.001132863553246956
0.0011649166262077955
0.0011988210077814067
0.0012352243539329015
0.0012748290017655245
0.0013183832289334573
0.0013665659623227815
0.0014183913286523716
0.0014488881092650312
7.300124013733417e-05
8.039128244585235e-05
9.557825743828166e-05
0.00011410702365236281
0.00013568334014906925
0.0001602734791724103
0.0001878218224649137
0.0002182282481664334
0.0002513447440826808
0.00028697440227290374
0.00032487197120679756
0.00036474622132843404
0.00040626437486507733
0.0004490587617673726
0.0004927358018024681
0.0005368873214314588
0.0005811040252188907
0.0006249905421403144
0.0006681808726436758
0.0007103525320913582
0.000751237710173771
0.0007906303760050295
0.000828389541854172
0.0008644399784138613
0.0008987719262002668
0.0009314410827771785
0.0009625689596391644
0.0009923432804329181
0.0010210178271687221
0.00104891154749418
0.0010764071233799212
0.0011039495341395658
0.001132045057102644
0.001161261043662769
0.0011922265321653474
0.0012256335133877482
0.0012622380356904093
0.0013028538470047453
0.001348243071910115
0.0013975735731458303
0.0014267972078544453
6.723975153562228e-05
7.471170063204017e-05
9.020411563554394e-05
0.00010928516557959064
0.00013164441626829407
0.00015722920102170516
0.0001859645160501762
0.00021772981353967153
0.00025235463238352607
0.000289616583115716
0.0003292410660911531
0.0003709031863373698
0.0004142322659675033
0.000458819201482935
0.0005042266968929623
0.0005500021616482759
0.0005956927321813596
0.0006408615220287509
0.0006851038322928434
0.0007280619023817495
0.0007694368920382208
0.0008089973464005621
0.0008465841295483797
0.0008821124586741711
0.0009155720408364643
0.0009470261542646866
0.0009766102919725056
0.0010045304709863545
0.0010310614204612565
0.0010565446757425665
0.0010813869114946002
0.0011060588667748672
0.001131095213281122
0.0011570955998257049
0.0011847269101102707
0.001214726557009456
0.0012479059950333134
0.0012851474289336659
0.0013273019652539784
0.0013737110657805803
0.0014014295392785468
6.089101616406502e-05
6.8451515000947e-05
8.428067431337384e-05
0.00010397347011378093
0.00012720077800386487
0.00015388959072404695
0.00018394522702749771
0.00021722691556957268
0.00025354176863815587
0.0002926411331815079
0.0003342189751752991
0.00037791299771364
0.00042330907542291707
0.00046994933345524307
0.000517343827838442
0.000564985416045616
0.0006123669806142395
0.0006589998208339403
0.0007044317677620843
0.0007482635819020233
0.0007901623762746121
0.0008298713393772069
0.0008672155778244534
0.000902104500988506
0.0009345314957016446
0.0009645717401190003
0.0009923789618831306
0.001018181726293914
0.0010422798019371882
0.001065041006846432
0.001086898971281871
0.0011083521927060345
0.0011299646886882776
0.0011523684183871736
0.0011762674851024677
0.0012024438941155757
0.0012317640574706808
0.0012651793382163108
0.001303633356367584
0.0013466603428721107
0.001372618725842472
5.4024927608646026e-05
6.167241351153209e-05
7.78553174453058e-05
9.820491013308585e-05
0.000122371488807993
0.0001502612022957555
0.00018176075584987108
0.0002167108722105762
0.0002548976462074931
0.000296046359880315
0.00033981779018201077
0.00038580802336863853
0.0004335526116427972
0.00048253549244665987
0.0005322025839370315
0.0005819793973734057
0.0006312914957830986
0.0006795862249465283
0.0007263539391374776
0.0007711470099134294
0.0008135952061367453
0.000853416618647666
0.0008904238547033556
0.0009245259095832472
0.0009557264669009928
0.0009841196754978223
0.0010098844704128976
0.0010332783832268846
0.0010546317782196256
0.0010743431154019622
0.0010928759131060652
0.0011107577807859426
0.0011285818595959966
0.0011470108036794949
0.001166783264216546
0.0011887226219524693
0.0012137471536624192
0.0012428752353870625
0.0012771436772345687
0.001316297262107227
0.0013402189190208967
4.674927791335284e-05
5.446868623254365e-05
7.099830575548217e-05
9.202518661227605e-05
0.00011717833358730045
0.00014634397258719527
0.000179393179249548
0.00021615201088244853
0.0002563888877961228
0.000299804595345987
0.0003460254402717302
0.00039460104167447606
0.0004450079611170409
0.0004966597417936694
0.0005489231864674666
0.0006011399319826084
0.0006526516492492638
0.0007028267152312238
0.0007510860149481635
0.0007969256365027878
0.0008399347591325341
0.0008798076677199637
0.0009163496813051926
0.0009494774696093177
0.0009792148373434762
0.0010056853245894663
0.0010291031298170195
0.0010497637139651845
0.0010680352985590906
0.0010843522204489037
0.0010992108353076854
0.00111316848937704
0.0011268458326433393
0.0011409326068637295
0.0011561968389869086
0.0011734971769861045
0.0011937974619846369
0.001218177583281663
0.0012477647494214812
0.0012825298947136343
0.0013041195093238713
3.921719996373187e-05
4.697302200153923e-05
6.380558947983413e-05
8.549246809550587e-05
0.00011164263799872678
0.00014212530823423788
0.00017680155233761884
0.00021548954372693164
0.0002579461018900654
0.0003038510567604754
0.00035279566301802393
0.00040427736675412423
0.00045770259606161504
0.0005123983774370666
0.0005676325201407789
0.0006226409441395765
0.0006766598136010566
0.0007289593956396775
0.0007788763516572679
0.0008258414975955796
0.0008694007409244549
0.0009092279528319732
0.0009451296610972834
0.0009770424096341651
0.0010050243589446197
0.00102924316171084
0.0010499620890693996
0.0010675263839430935
0.0010823513171878071
0.0010949131953390645
0.0011057440724851963
0.0011154306904523834
0.0011246178729461451
0.001134016453347539
0.00114441566952124
0.0011566997843841804
0.0011718681352349807
0.0011910526445781222
0.001215464373074062
0.0012453128976163369
0.0012642616572851786
3.163303699124729e-05
3.936068078240003e-05
5.6399887446538436e-05
7.867551981416105e-05
0.00010578049605367555
0.00013757250030918967
0.00017391167157689778
0.00021461919187893642
0.0002594503993533935
0.00030807055798447814
0.00036003633187345395
0.0004147861253994887
0.0004716416343696087
0.000529821748386637
0.0005884684062331177
0.0006466824049688078
0.0007035656494959673
0.0007582653930509115
0.0008100157365923968
0.0008581721710288452
0.000902236123036057
0.0009418680830752148
0.0009768894939375032
0.0010072749612863247
0.0010331373645377099
0.0010547087150377817
0.0010723197309630227
0.0010863805762269577
0.0010973646948414218
0.0011057971156718735
0.001112247973482877
0.0011173316620786183
0.0011217116939416054
0.001126111199839572
0.0011313289993456958
0.0011382611435969778
0.0011479274977139306
0.001161498340771802
0.001180257480578372
0.001204662898947561
0.0012206565318715285
2.4254439521566114e-05
3.185026309427873e-05
4.892920390649922e-05
7.164992819331368e-05
9.959694860667893e-05
0.00013262401400542125
0.00017060405599019526
0.0002133787610485719
0.00026071784976839464
0.00031228242771518205
0.0003675965754407483
0.000426031306345435
0.00048680423365228824
0.000548996720674409
0.0006115880425784131
0.0006735036492014856
0.0007336723168911331
0.0007910854974987195
0.0008448518259795203
0.0008942407256408555
0.0009387109847398685
0.0009779227953150096
0.0010117341773738873
0.001040184696453665
0.0010634705814929239
0.001081915584512635
0.001095941606212049
0.001106042361663791
0.0011127622320745813
0.0011166817770301611
0.0011184103907567469
0.0011185862469021985
0.001117883285178772
0.0011170249452150936
0.0011168043946484197
0.0011181112150049622
0.0011219649711411296
0.0011295527066477423
0.0011422186738072988
0.0011606739197146975
0.0011734025786616998
1.738919073248016e-05
2.469913784513823e-05
4.156110040067386e-05
6.449444355339967e-05
9.308070162629788e-05
0.00012717950644569354
0.0001667005963180097
0.00021153261613287585
0.00026148303340766646
0.0003162247709607354
0.00037525381758313924
0.0004378638024320982
0.0005031425815344164
0.0005699937758187822
0.0006371830341218088
0.0007034047357310999
0.0007673613034947428
0.0008278447437828567
0.0008838097232254338
0.0009344291583760928
0.0009791267985655228
0.0010175854647143437
0.0010497334876032763
0.0010757146698909142
0.0010958483658409797
0.0011105862363869725
0.0011204711489898437
0.0011261022129225341
0.0011281083206802957
0.0011271312377252136
0.0011238183173627625
0.0011188243451152164
0.0011128217760139744
0.0011065186594472892
0.0011006837392783225
0.0010961785696062488
0.0010939966833026559
0.001095310899494563
0.0011014926500449369
0.0011135334469506463
0.0011227087914629714
1.137550867646056e-05
1.8189031520759694e-05
3.44814224608647e-05
5.729040543876801e-05
8.619459304971618e-05
0.00012108791978259201
0.00016195192726114557
0.00020875799779150587
0.0002613845697387874
0.00031954049868112953
0.0003827026786542521
0.0004500762348255994
0.0005205855073772892
0.0005929011986172672
0.0006655040882519671
0.0007367793468484923
0.0008051292034422023
0.0008690876410949751
0.00092742021786717
0.0009791953723613453
0.001023819837026315
0.0010610378328928507
0.0010908998572413495
0.0011137106431974215
0.001129966995375641
0.0011402951121267364
0.0011453946735492044
0.0011459941793832383
0.001142819570835094
0.0011365763328818077
0.001127944045481295
0.0011175819454965136
0.0011061441178721624
0.0010943029580661766
0.001082780288131583
0.001072385605844063
0.001064061774983365
0.0010589341762062298
0.00105835309610065
0.0010635271866414192
0.0010688753237481146
6.60643594301828e-06
1.2632054755265403e-05
2.7891358977185828e-05
5.010455762009763e-05
7.887037134852457e-05
0.00011415441787090034
0.00015604918894438315
0.0002046575416623364
0.00025997609417322795
0.0003217869328545436
0.00038956548967897605
0.0004624180751273547
0.0005390622292199123
0.000617860142557752
0.0006969073924002613
0.0007741689733570836
0.0008476431261167539
0.0009155265367310323
0.0009763532033636238
0.0010290860295103664
0.0010731513410113828
0.0011084190630638808
0.0011351408237042784
0.0011538631913576992
0.0011653330640150142
0.001170409183832585
0.0011699886258795056
0.0011649526420440266
0.0011561324438635419
0.0011442932568758851
0.0011301338330949214
0.0011142985512278961
0.0010973996230658825
0.0010800477602494333
0.0010628904251139284
0.001046657651290311
0.0010322154142054162
0.0010206282337627895
0.0010131911680357662
0.0010112951239894473
0.0010125543016690876
7.288988348390946e-05
0.00010841253012863914
0.00020173367534777453
0.00039883580746229364
0.00047790868272016207
0.0006475659587120925
0.000733697347530775
0.0008959832308750913
0.0009674755269794303
0.0010828549356825584
0.0011252008326763767
0.0011572681557476278
0.0011796150837204695
0.0011931191324881906
0.0011988427252732881
0.0011979167782047698
0.0010862774797190523
0.0010639412782485643
0.000982769473325301
0.0009690559777167431
0.0009579443595360105
3.549926993203541e-06
8.875339541620449e-06
2.3014567865608503e-05
4.4444800288179445e-05
0.00015126679734198654
0.0002599674508306644
0.000325845128034536
0.0005615013952563348
0.0008173317540002314
0.0010301264639849786
0.001191451814594407
0.001180478930761959
0.0011659182400625917
0.0011485700545337434
0.0011291236590057492
0.0011081789292777685
0.0010417181341442973
0.0010202346085799567
0.0010002583454441114
0.0009605941729124909
2.18973030213393e-06
6.65305342178375e-06
1.944509869215445e-05
3.975886953979374e-05
6.7317108145901e-05
0.00010226515003293952
0.00014497688280536728
0.00019588367459041724
0.00025528872313957253
0.000323186596114336
0.00039909915303221774
0.000481953504323683
0.0005700308863494874
0.0006610121444071792
0.0007521301877716863
0.000840415284406895
0.0009229926541803225
0.0009973741538933027
0.001061686099731762
0.0011147933505929993
0.0011563092262858613
0.0011865081809889213
0.0012061757634470717
0.00121643430797476
0.001218576724667939
0.0012139290460241256
0.001203751063125899
0.001189175183773101
0.0011711783503380367
0.0011505797513178453
0.0011280569159956948
0.001104174519897502
0.001079421584440666
0.0010542550999722584
0.0010291494122054968
0.0010046522275553023
0.0009814497852453107
0.0009604415244155052
0.0009428330468141493
0.0009301456085350475
0.0009250686136895091
1.5235510493542706e-06
5.162142674290777e-06
1.6656416647464652e-05
3.586469664994869e-05