# vtk DataFile Version 2.0
time_10.vtk
ASCII
DATASET UNSTRUCTURED_GRID
POINTS   4141  float 
3.773306892242002e-05         3.722652096962281e-17         0.0                           
0.24999999999999933           3.570898580348744e-05         0.0                           
0.5000345817616492            1.1226244265700537e-17        0.0                           
0.75                          3.2060162767055884e-05        0.0                           
1.0000306535644052            5.60564328574484e-18          0.0                           
1.25                          2.7525576406466955e-05        0.0                           
1.5000257980829852            1.0942083484935295e-17        0.0                           
1.75                          2.200901395290512e-05         0.0                           
2.000019947848775             1.2553445270672872e-17        0.0                           
2.25                          1.550115426799843e-05         0.0                           
2.500013122307413             -1.8032051791337798e-17       0.0                           
2.75                          8.079599803393248e-06         0.0                           
3.0000054329540293            -7.282151577352028e-20        0.0                           
3.25                          -1.4420032733758338e-18       0.0                           
3.4999969478619217            3.242316288527947e-18         0.0                           
3.75                          -9.214451865533438e-06        0.0                           
3.9999876384706012            1.0465842982866404e-15        0.0                           
4.25                          -1.8798473482486588e-05       0.0                           
4.499977915836491             -5.170476912989855e-17        0.0                           
4.75                          -2.877952551909117e-05        0.0                           
4.999967813296133             -1.016396530496162e-16        0.0                           
5.25                          -3.911997689551203e-05        0.0                           
5.499957351161622             -6.947894532258124e-16        0.0                           
5.75                          -4.984537648226569e-05        0.0                           
5.999946478205335             -2.278213517573187e-17        0.0                           
6.25                          -6.105993007936667e-05        0.0                           
6.499935064150774             2.091110826863381e-16         0.0                           
6.75                          3.7627386278275585e-05        0.0                           
7.0000366524717075            2.821352755795524e-06         0.0                           
7.2500030175190595            3.447985686603572e-05         0.0                           
7.5000332665845               3.445588991696727e-06         0.0                           
7.750003675098247             3.0553122374156785e-05        0.0                           
8.000029042569963             4.15803792828247e-06          0.0                           
8.250004408410291             2.569578227073605e-05         0.0                           
8.500023855596757             4.91911732622146e-06          0.0                           
8.75000517636068              1.983990424727274e-05         0.0                           
9.000017666845164             5.687299093725239e-06         0.0                           
9.25000593828971              1.3003758727322832e-05        0.0                           
9.50001052179627              6.425133467580591e-06         0.0                           
9.7500066586237               5.281305749784123e-06         0.0                           
10.000002526311905            7.100658948775938e-06         0.0                           
7.345630503390284e-06         0.29999674011069155           0.0                           
0.24999372018171387           0.3000077783473824            0.0                           
0.5000079684731146            0.29998748829153926           0.0                           
0.7499842930630394            0.30000833449338393           0.0                           
1.0000085110947667            0.2999777632863338            0.0                           
1.2499744342864683            0.3000088551028612            0.0                           
1.5000090246169884            0.2999676568363109            0.0                           
1.7499642094448797            0.30000936497309383           0.0                           
2.0000095386143055            0.29995719297397383           0.0                           
2.249953619174035             0.3000099001781503            0.0                           
2.5000100910722924            0.2999463210520349            0.0                           
2.749942586012663             0.30001050024882947           0.0                           
3.000010721164583             0.29993491038988646           0.0                           
3.2499309540122963            0.3000112012975551            0.0                           
3.5000052684917096            0.3000363395400147            0.0                           
3.7500352969468107            0.3000060279121124            0.0                           
4.000006445685433             0.30003296323066825           0.0                           
4.250031657732752             0.3000073461412891            0.0                           
4.500007823357311             0.3000287405700803            0.0                           
4.750027120482993             0.3000088166634826            0.0                           
5.000009326448694             0.30002354449136104           0.0                           
5.250021586763086             0.30001035663005227           0.0                           
5.500010871040302             0.3000173351307231            0.0                           
5.7500150453883405            0.3000118847986101            0.0                           
6.000012379369866             0.30001015395299757           0.0                           
6.250007559566745             0.30001333486067094           0.0                           
6.500013794859014             0.30000208608600115           0.0                           
6.749999222591789             0.300014700147108             0.0                           
7.0000151351432525            0.29999326895859457           0.0                           
7.249990186835193             0.30001593564350704           0.0                           
7.5000163099174895            0.29998384503286557           0.0                           
7.749980598102091             0.30001702626598276           0.0                           
8.000017372403644             0.2999739727334428            0.0                           
8.249970599457825             0.3000180515390314            0.0                           
8.500018389550712             0.2999637376327437            0.0                           
8.749960248529595             0.300019076318183             0.0                           
9.000019430964842             0.2999531448854046            0.0                           
9.249949523590578             0.30002017779702794           0.0                           
9.500020575878146             0.29994211746512667           0.0                           
9.749938319880012             0.3000214351394303            0.0                           
10.000021901177945            0.29993049733898003           0.0                           
3.678090139420907e-05         0.6000078819822903            0.0                           
0.25000843269334344           0.6000347814491258            0.0                           
0.5000336640420823            0.6000096527714511            0.0                           
0.7500103157911998            0.60003115447329              0.0                           
1.0000297493666996            0.6000117279088094            0.0                           
1.2500124680034275            0.6000266141611931            0.0                           
1.5000248776981968            0.6000139925245656            0.0                           
1.7500147673902053            0.6000210596178758            0.0                           
2.0000189782818594            0.600016319351079             0.0                           
2.250017087972009             0.6000144790068744            0.0                           
2.500012066673169             0.6000185921659408            0.0                           
2.7500193220995293            0.6000069344931712            0.0                           
3.0000042228311434            0.6000207312730741            0.0                           
3.2500214108403784            0.5999985396651752            0.0                           
3.499995582848645             0.6000227113585656            0.0                           
3.7500233242804644            0.5999894635078135            0.0                           
3.9999863107779277            0.6000244753765862            0.0                           
4.250025020591778             0.599979847345421             0.0                           
4.499976546586361             0.600026068473179             0.0                           
4.750026578071571             0.5999698242211835            0.0                           
4.999966406475443             0.6000275875262561            0.0                           
5.250028095691727             0.5999594597788626            0.0                           
5.499955928405972             0.6000291410344665            0.0                           
5.750029687351007             0.5999487353943118            0.0                           
5.999945064817122             0.6000308499535868            0.0                           
6.250031474896721             0.5999375453856554            0.0                           
[...]
POINT_DATA  4141
SCALARS Con float 1
LOOKUP_TABLE default
0.00022335543351223965
0.00024022710802923812
0.00027359750244122365
0.0003125663819896809
0.00035656105793246853
0.0004057016367314423
0.000460079496673562
0.0005196992782313543
0.0005844701320981364
0.0006542039831194597
0.0007286176936434426
0.0008073386992926054
0.0008899135317619099
0.0009758181885719568
0.0010644686345481628
0.0011552283845115163
0.0012474118801848702
0.0013402788582004335
0.0014332146534305646
0.0015271131482797412
0.0016325986088815843
0.0017383933356103914
0.001833476904316534
0.0019239151799000358
0.002014347169554339
0.002104499571898024
0.002194496115435046
0.002284572874572707
0.002375132841961086
0.0024667151958842775
0.0025599791086250018
0.0026556897718285266
0.002754706578494722
0.0028579721585263156
0.002966501559627169
0.003081370960307242
0.0032037040925375
0.003334637015702621
0.0034750033726580714
0.00362103554394712
0.0037051293023470933
0.0002267933875883849
0.00024405844980488747
0.00027810346439322616
0.00031779969388292
0.0003625759537068517
0.0004125385329287627
0.000467764972718457
0.0005282452725378412
0.0005938738407013674
0.0006644484077017851
0.0007396729886931215
0.0008191645873107598
0.0009024633735564379
0.000989046071829109
0.0010783426420040124
0.0011697589162890996
0.0012627119865400234
0.0013567447103671776
0.0014517174121715577
0.0015500070549777651
0.0016494644308236116
0.0017472937094822575
0.0018423046031677377
0.001935733363653266
0.002027239129210029
0.002117888664223449
0.0022080656529187407
0.0022981915335309787
0.0023887567829186077
0.0024803537902116507
0.002573677665873115
0.002669521202375863
0.0027687669486893274
0.0028723780923775306
0.002981388570554571
0.0030968921824684383
0.0032200290855189306
0.0033519509062339336
0.0034935007140628567
0.0036409724681762214
0.0037259936107990207
0.00022485756674207096
0.00024211434768529433
0.0002762297993562927
0.00031609612456176154
0.0003611290771608729
0.00041143000916469554
0.00046706956985899357
0.0005280303067823911
0.0005941990055989235
0.0006653662425598171
0.0007412303089666049
0.0008214055281739613
0.0009054353416516784
0.0009928111131919997
0.0010829993978138397
0.0011754834113752448
0.0012698401753357814
0.00136583044796175
0.0014638014809300768
0.0015611494474770898
0.0016542334811309723
0.0017471531545126
0.0018429819153813047
0.0019375563708075394
0.0020303066523600865
0.0021215229216239354
0.0022118119263287318
0.0023017153043499963
0.002391814123215441
0.0024827574218009383
0.002575279186510002
0.002670201741582882
0.0027684330958738738
0.0028709609562073083
0.0029788447516623097
0.0030932060409564507
0.003215215897536719
0.003346060231638236
0.003486623989304733
0.0036332174807187654
0.00371776096667351
0.00022150161295754947
0.0002387826813737477
0.00027303056086813585
0.0003131784559686667
0.00035863836640307134
0.0004095014948924455
0.00046582688847635105
0.0005275841829806814
0.0005946465884681003
0.0006667910984956739
0.0007437032413330748
0.0008249865126777206
0.0009101768869749639
0.0009987630455813399
0.0010902128050179316
0.0011840059599633227
0.001279653308885381
0.001376696184409058
0.0014739669141444597
0.0015699642104170513
0.0016645603275034985
0.0017582588812998705
0.0018517696516865102
0.0019453462659586246
0.002037753206123694
0.0021287617220661632
0.0022186296963680684
0.0023078419694230784
0.0023969831172990954
0.0024867281517347924
0.002577841409707803
0.002671176794067125
0.0027676752422345074
0.002868359885582852
0.002974329334462424
0.0030867492214198063
0.0032068405187843986
0.0033358458348611082
0.003474713424809076
0.0036198566027608042
0.003703693245146489
0.00021675748211851686
0.0002340741853404378
0.00026851763514846726
0.0003090707608636675
0.00035513853439379616
0.0004067981673635685
0.00046409175632389877
0.0005269699932495352
0.0005952856342330042
0.0006687941062864845
0.0007471585099380334
0.0008299589888981473
0.0009167063500617761
0.0010068591472915406
0.0010998418487221356
0.001195055101466755
0.001291865436824668
0.0013894742663168502
0.0014869692105583295
0.0015835899554962098
0.0016789104941913509
0.0017731064410634694
0.0018664670759039026
0.0019589077656456933
0.0020502689745051173
0.0021402987878144236
0.002229097134541819
0.002317024587657236
0.002404620340240604
0.002492552894196007
0.0025816017457986565
0.002672648048819232
0.002766668406837846
0.00286472891437639
0.002967978638143035
0.0030776418403046396
0.0031950072114758756
0.003321395110024233
0.00345784548619692
0.003600915676249509
0.003683732723227248
0.00021058326193764865
0.00022795360228676485
0.00026266286345374734
0.0003037526335006262
0.0003506175402327273
0.00040331591959800073
0.0004618673776150487
0.0005261973123480362
0.0005961307159472535
0.0006713928245696013
0.0007516138140354896
0.0008363372957023355
0.0009250320351595538
0.0010171054024171232
0.0011119150875524035
0.001208774186103841
0.001306936197523627
0.0014056082009914516
0.0015040082345540934
0.0016014784737899647
0.0016976370168367968
0.0017923434380502084
0.0018855861133101905
0.0019773587693412043
0.0020675744513359183
0.0021562210496751176
0.0022434146075344576
0.0023294769459708247
0.0024149131321794877
0.002500381862795344
0.002586672930582395
0.0026746933918028186
0.0027654581743113194
0.002860082764872617
0.0029597765068969423
0.003065835448304901
0.003179632609775225
0.0033025867648708344
0.003435855414646484
0.0035761832436854136
0.0036576443044372777
0.00020293708033928566
0.00022038284520633502
0.00025543670403311875
0.0002972039330601555
0.00034506482852808887
0.00039905373506064697
0.0004591621012554236
0.0005252837422312544
0.0005972087358362786
0.0006746238101767186
0.0007571164356418847
0.0008441823222690558
0.0009352357416876789
0.0010296214065283055
0.0011266261764784628
0.001225488513981217
0.0013254138149060364
0.001425602703681536
0.001525305189823714
0.001623894661664747
0.0017209153354201979
0.001816091769426603
0.0019092792607698793
0.0020004021013026755
0.0020894438300237397
0.00217645924070859
0.0022616325389822702
0.002345303010252647
0.002427977598579885
0.002510320534870733
0.00259313904195582
0.00267737075280992
0.002764074100266271
0.0028544208703207017
0.002949689956746235
0.0030512612554973967
0.003160607482317755
0.0032792650938971665
0.003408533709193943
0.0035453900372275212
0.0036251236580487943
0.00019378236865107794
0.00021132917625815378
0.0002468143920846498
0.0002894091568730844
0.0003384746308297898
0.0003940158348779219
0.000455990571884727
0.0005242552359580255
0.000598558511486919
0.0006785412342049164
0.0007637397512193032
0.0008535926799365992
0.0009474507962317284
0.0010445895597030574
0.0011442238096097163
0.0012455260755293422
0.001347650891821239
0.0014497695909084073
0.0015511151818468983
0.0016510279405063779
0.001748989891393176
0.0018446323727244562
0.0019377219374399422
0.0020281399850037253
0.0021158700809383257
0.0022010085443625576
0.0022837810368111933
0.0023645625520586147
0.0024438850066286124
0.0025224364177100452
0.002601053546802458
0.0026807132553356284
0.0027625248258883357
0.0028477238953164593
0.0029376677095108695
0.0030338309032693347
0.003137799644297545
0.003251245576809142
0.003375633738611959
0.003508219875476682
0.0035858130853967485
0.00018309742364147838
0.00020077335340718116
0.00023678255287127992
0.00028036219113382034
0.0003308487735482755
0.0003882126244045566
0.00045237289213717515
0.0005231435499886773
0.0006002264794035642
0.0006832104334877048
0.0007715735122537815
0.0008646893651665915
0.0009618373164532403
0.0010622164802004583
0.0011649641951682723
0.0012691793987174588
0.0013739520561255596
0.0014783986199102107
0.0015817010486658064
0.0016831439332917874
0.0017821419163967
0.001878253377574664
0.0019711810313885873
0.002060766090871456
0.0021469849813016773
0.002229951156878985
0.002309923104511878
0.0023873118110003103
0.0024626855655794718
0.0025367694770157567
0.0026104415791508915
0.0026847274072462563
0.0027607949846881886
0.0028399511218922557
0.0029236391720338577
0.0030134376782978895
0.0031110578599619415
0.0032183217808227486
0.00333688143058107
0.0034643200834535513
0.003539311817885601
0.00017088670924869857
0.0001887197179902181
0.00022534684005589688
0.00027007136556351645
0.0003221990884387923
0.00038166048954662213
0.00044833192505757216
0.0005219812270299532
0.0006022594755381754
0.0006886984661623905
0.0007807118953176063
0.0008776008924799859
0.0009785645099552448
0.0010827156023892756
0.0011891023625468966
0.0012967356120111748
0.001404621439258826
0.0015117977980895132
0.0016173721998586376
0.0017205562955307572
0.0018206932225109666
0.0019172750979768057
0.002009951181675773
0.0020985298914096696
0.0021829784447039255
0.0022634232721807906
0.002340151377279931
0.0024136118703150687
0.002484416072156255
0.002553335728267928
0.002621299737245585
0.00268939067655398
0.0027588422285792186
0.002831038331500517
0.002907514227380591
0.0029899589783557207
0.003080217472107027
0.0031802742771830346
0.0032919870446488342
0.003413315880693217
0.003485191812089687
0.00015719441183302259
0.0001752080065860054
0.0002125405442876446
0.0002585646073682547
0.0003125490654101895
0.00037438004496916343
0.00044388840147093677
0.000520793937163373
0.0006046947833041521
0.0006950623845725808
0.0007912406179042093
0.0008924501675304108
0.0009977991544952698
0.0011063006485745451
0.001216897188958397
0.0013284918385870585
0.0014399845174412982
0.0015503114438923198
0.0016584846201179871
0.00176362788041267
0.001865006315781514
0.001962047240709749
0.0020543526370872664
0.0021417046314907177
0.002224066399092184
0.0023015805351336714
0.002374566344393756
0.0024435163193792693
0.0025090921913067683
0.0025721206633913113
0.0026335895528108457
0.0026946451899452274
0.002756591950254695
0.002820894474794687
0.002889182696636498
0.00296325924151813
0.0030451072369215224
0.0031368815420944616
0.0032406601262846306
0.0033548290201442016
0.003423018261447366
0.00014212014979757205
0.00016032682877483773
0.00019843387728512982
0.0002458942854657324
0.0003019342509560334
0.0003663923061587343
0.0004390532910967644
0.0005195897074444855
0.0006075470785459019
0.0007023349364721221
0.000803222643115752
0.0009093417475216755
0.0010196963282287643
0.0011331821424397958
0.001248614546934609
0.0013647642324948204
0.0014803988022208635
0.0015943273459199543
0.0017054445413606937
0.0018127707507074517
0.0019154850868129548
0.002012949625247279
0.00210472431515563
0.002190573572677027
0.0022704662827379004
0.002344571283337135
0.002413250202717696
0.0024770490508131196
0.0025366898702932684
0.0025930633946516187
0.002647223758537145
0.0027003861806580926
0.0027539283578643064
0.0028093960106521376
0.0028685125979546
0.0029331926786710983
0.0030055569611053172
0.003087932787347264
0.003182627626741942
0.003288500925377808
0.0033523754145722614
0.0001258365155299017
0.0001442283542861896
0.00018314341265049725
0.00023214112583310362
0.0002904007217464321
0.0003577120579290019
0.00043381671608004054
0.0005183443204226757
0.0006107915385505165
0.0007105068791811485
0.000816681391281045
0.0009283477420089036
0.0010443897291775148
0.0011635633065353761
0.001284528966988695
0.0014058939749014205
0.0015262616729057338
0.001644284106986897
0.0017587136934783109
0.0018684497756430282
0.00197257664949286
0.0020703909559661136
0.0021614177686250535
0.0022454162179469856
0.0023223764475840763
0.0023925103376056097
0.002456238547992017
0.0025141761622243545
0.0025671191117064515
0.0026160329647517636
0.002662045591076311
0.0027064447215879193
0.002750681189568819
0.0027963782050826253
0.002845346592448421
0.0028996053666583187
0.002961405660605366
0.0030332425176385473
0.0031176550861715707
0.0032140203760268595
0.0032728977696630077
0.00010860747749632288
0.00012714328628234912
0.00016684073687706414
0.0002174163190816177
0.0002780008003267877
0.00034833767291702754
0.00042813265716944014
0.0005169820807849889
0.0006143422509734114
0.0007195049559623577
0.0008315804114631363
0.0009494912643737182
0.0010719806027719538
0.0011976354392735683
0.001324925353092064
0.0014522540968450607
0.00157802025118864
0.0017006817883458726
0.0018188189023553374
0.0019311897284873653
0.0020367747397146713
0.002134807188065942
0.0022247889261934263
0.002306492656329262
0.002379953069190611
0.002445450089094599
0.002503487763637069
0.0025547721319632457
0.002600190960580266
0.002640797749986087
0.0026778017140483765
0.002712565049947287
0.0027466081950030465
0.0027816234222211803
0.0028194966372574394
0.0028623367084283733
0.0029125101408822994
0.002972666625396496
0.0030455706336619173
0.003131155551610824
0.0031843066444761352
9.080581032937277e-05
0.0001093944193861481
0.00014975892455399434
0.00020186070688731064
0.00026478528382986924
0.00033823682109311505
0.0004218989414974497
0.0005153513809121445
0.0006180252704870802
0.0007291648893649247
0.0008477989834564193
0.0009727271836078564
0.0011025256661246494
0.0012355740837360267
0.001370103282721488
0.0015042605635892763
0.0016361869290596352
0.0017640990130119878
0.0018863678232968258
0.0020015870443885206
0.0021086253078853503
0.00220665926186782
0.0022951869405832374
0.0023740233073601645
0.0024432816311428874
0.002503345432934865
0.0025548358443805447
0.0025985790499072053
0.0026355775408107907
0.002666988196405387
0.0026941091563738575
0.0027183768220880224
0.0027413735856325026
0.0027648465368698425
0.0027907370074177693
0.0028212203779364197
0.0028587541421651467
0.0029061197365720277
0.002966291310700335
0.003039789810835567
0.0030864513453945953
7.292654320818382e-05
9.14060891292473e-05
0.000132194754294167
0.00018564007074428572
0.0002507918946136151
0.0003273282516320924
0.0004149326715730667
0.0005131949781694591
0.000621546162597845
0.0007391992944918207
0.0008651037988715178
0.0009979208170260649
0.0011360253745634637
0.0012775382999646442
0.0014203871467272004
0.0015623915069399462
0.0017013645093063609
0.0018352198961522255
0.00196207332844963
0.0020803276623750874
0.0021887347050648645
0.0022864296778095676
0.002372938545327539
0.0024481617025435497
0.002512339957811026
0.0025660096930527425
0.0026099542320139795
0.0026451574762772715
0.0026727646062449538
0.0026940532443161308
0.002710417135245285
0.0027233633633848954
0.0027345234513565836
0.002745678224512153
0.0027587962613987516
0.002776085741469756
0.002800058591013363
0.0028335946419094328
0.002879850804570145
0.002939960011138668
0.0029793546240867433
5.559097138710444e-05
7.370520975295472e-05
0.0001145046467378425
0.0001689358625350195
0.0002360313237731747
0.0003154610445065214
0.00040694163493520523
0.0005101155853595306
0.000624452816784421
0.0007491614491241571
0.0008831178735085446
0.0010248261443246076
0.0011724149071056802
0.00132367634783242
0.001476146392811237
0.001627219507648695
0.0017742858854961317
0.0019148751492099377
0.002046789643586565
0.0021682125376393034
0.0022777804607174972
0.0023746164991472257
0.0024583253193908934
0.002528957018370317
0.0025869492904058737
0.002633058363068825
0.0026682884579903505
0.0026938277952694508
0.0027109967038598222
0.0027212114721427557
0.0027259654514598716
0.0027268278650197176
0.0027254598440376045
0.002723647024108084
0.002723348128161239
0.0027267594232301055
0.002736396083155765
0.002755183264936933
0.002786430593099244
0.0028318949650105968
0.0028632558271620098
3.9537580742220824e-05
5.690919830988933e-05
9.709041179212985e-05
0.0001519362805174257
0.00022047476829235589
0.0003023911491471919
0.0003974928419667264
0.0005055391991782835
0.000626096416383852
0.0007584077484639048
0.0009012893879019527
0.0010530664474658197
0.0012115614006443821
0.0013741424303044994
0.0015378316350876165
0.0016994634236750618
0.0018558747836618073
0.002004102834940735
0.002141563928216775
0.0022661922052508486
0.0023765236768511474
0.0024717217597780335
0.0025515496188881683
0.0026163015533666495
0.0026667090511529575
0.002703837293726545
0.002728985591854047
0.0027436016944539223
0.002749216129401954
0.002747399462478507
0.0027397429252299993
0.0027278614235111054
0.0027134172364492366
0.002698162751903299
0.002684000936897115
0.002673063171366978
0.002667804446436937
0.002671118674418781
0.002686386118811936
0.002716055420959406
0.0027386686322413
2.557318924677051e-05
4.169038344299295e-05
8.039546115344383e-05
0.00013483485710153766
0.0002040316510337674
0.0002877537477648963
0.00038598334886017334
0.0004986833895207998
0.0006255976795608392
0.0007660648328275159
0.0009188653426458907
0.0010821218008695438
0.0012532723208456508
0.0014291305463634372
0.0016060341297591684
0.0017800682477037745
0.0019473358071127006
0.002104235507061005
0.0022477071608068356
0.0023754107096172488
0.0024858199352720853
0.0025782286305295428
0.002652682106086258
0.002709856181388537
0.0027509093427342144
0.0027773314423735645
0.002790807009937695
0.002793104745546304
0.0027859987107473044
0.0027712221224146035
0.0027504517609843694
0.002725319611599843
0.0026974483829142726
0.0026685077698361
0.002640289745038207
0.002614801572950269
0.002594377186155631
0.0025817971638804576
0.0025803925089863747
0.002593147229933335
0.002606334901098049
1.4627342318794788e-05
2.8787218068144794e-05
6.489690891767406e-05
0.00011778970240973454
0.0001865384030147968
0.00027108186834314826
0.000371671126949815
0.0004885905267639284
0.0006218767744414821
0.000771056418646592
0.000934920569498791
0.001111369046645188
0.0012973559960633354
0.0014889621115693613
0.0016816005706034364
0.001870338752485083
0.002050290994512347
0.0022170194327501163
0.0023668765010615117
0.0024972370015709138
0.0026065940768905263
0.0026945231029672743
0.002761541247139143
0.0028089030903047266
0.0028383735283490008
0.002852012191860003
0.002851992073382103
0.002840463925400541
0.0028194688583192493
0.0027908956758041013
0.0027564765806326365
0.0027178143300513255
0.002676434888296223
0.0026338613432472418
0.002591706951624975
0.0025517870251819444
0.0025162495097523
0.002487728235988531
0.0024694210857783426
0.0024647591104219675
0.0024678725573964214
0.00017225304221676956
0.0002572540548379138
0.00048129505877398434
0.0009567109351136302
0.0011481395521839674
0.0015602138489850465
0.0017701757767323249
0.002167438542258734
0.002343295672368418
0.002628701035831311
0.0027342145846641097
0.002814631633645857
0.002871198684936307
0.002905969851572182
0.002921481192295939
0.0029204646377065146
0.0026495729168668474
0.0025946536644308534
0.002394750853201405
0.0023609689490717597
0.002333616877400354
7.746585650248749e-06
2.016097491570566e-05
5.347545494626233e-05
0.00010438395855074524
0.0003600284200132663
0.0006214804779023261
0.0007803544082635389
0.0013509386412144334
0.001974608808855856
0.002497973011414826
0.0029056262557608493
0.002879496181103789
0.0028443457445468346
0.0028021610090606256
0.002754660383367648
0.002703344919371482
0.0025399585858010398
0.0024870509656325377
0.0024378389478312856
0.0023401336419412518
4.797139858400881e-06
1.509917829146072e-05
4.511082370905931e-05
9.32698574193398e-05
0.00015893628926454795
0.00024247656454742643
0.0003448200669494458
0.0004670501563348288
0.0006099579427654734
0.0007736062564781323
0.0009569299956239011
0.0011574336043148347
0.001371055284712525
0.0015922607908365823
0.001814394700841207
0.0020302593254362387
0.002232827851272829
0.002415954115851681
0.0025749385980921224
0.002706850883004921
0.0028105776004650716
0.0028866314029550007
0.0029368008992097516
0.002963733561473716
0.0029705310154410827
0.00296040928123437
0.002936449021163562
0.0029014383512070132
0.002857797088291382
0.002807565350566312
0.0027524388950643376
0.0026938369042769613
0.0026329917281909293
0.0025710550944810593
0.0025092191962114156
0.0024488542612724124
0.0023916688429637817
0.0023398932768977023
0.002296507627139343
0.002265263294173445
0.0022527684323128973
3.462692543037296e-06
1.1755098926831125e-05
3.859699055877908e-05
8.404402244368018e-05
0.0001475195987869177
0.00022956647783024467
0.00033144235917556303
0.0004546303051893471
0.0006003295748925723
0.0007689353077156502
0.0009595484687814523
0.0011695855134409786
0.0013945814724090648