# vtk DataFile Version 2.0
time_10.vtk
ASCII
DATASET UNSTRUCTURED_GRID
POINTS   4141  float 
5.478992822970997e-05         -5.671305681644578e-18        0.0                           
0.24999999999999792           5.204171277891922e-05         0.0                           
0.500050484594845             7.794354352719601e-16         0.0                           
0.75                          4.6949627267113265e-05        0.0                           
1.0000449536265634            -3.4381320866011847e-17       0.0                           
1.25                          4.0470217325083755e-05        0.0                           
1.5000379737964593            -9.122429981277426e-16        0.0                           
1.75                          3.246122170739095e-05         0.0                           
2.0000294458276286            1.1200779299399683e-16        0.0                           
2.25                          2.2910747241217456e-05        0.0                           
2.5000194015419286            3.2171207232203592e-18        0.0                           
2.749999999999999             1.1941717513879786e-05        0.0                           
3.0000080204608746            7.64437961996566e-17          0.0                           
3.25                          9.99705880646587e-17          0.0                           
3.49999537558324              -8.476199665844239e-17        0.0                           
3.75                          -1.3914566404682707e-05       0.0                           
3.999981342972129             1.4665198613117468e-16        0.0                           
4.25                          -2.8368680833524188e-05       0.0                           
4.4999666668051095            4.331209024627482e-17         0.0                           
4.75                          -4.346552682773895e-05        0.0                           
4.999951370063767             -2.1422678583672585e-17       0.0                           
5.25                          -5.9155739341540124e-05       0.0                           
5.499935478482073             4.4477387571826007e-17        0.0                           
5.75                          -7.548102354330579e-05        0.0                           
5.9999189118469936            1.8066880125600402e-16        0.0                           
6.25                          -9.260145349646928e-05        0.0                           
6.499901470739995             -1.6830513077852858e-15       0.0                           
6.75                          5.4619696215455255e-05        0.0                           
7.0000533047091995            3.829072854842405e-06         0.0                           
7.2500041426317035            5.031998941607528e-05         0.0                           
7.500048627084763             4.822901820456694e-06         0.0                           
7.750005186019693             4.479117155473577e-05         0.0                           
8.00004263278974              5.94772101990545e-06          0.0                           
8.250006341747149             3.780847312469257e-05         0.0                           
8.500035136729077             7.144470472708935e-06         0.0                           
8.75000754855779              2.9271727694994525e-05        0.0                           
9.000026082270939             8.351205204298027e-06         0.0                           
9.250008745672712             1.9210164721768107e-05        0.0                           
9.500015539975976             9.511323018046128e-06         0.0                           
9.750009878672751             7.768428121612306e-06         0.0                           
10.000003669213964            1.0573972477369721e-05        0.0                           
1.0973559801116227e-05        0.2999950179943379            0.0                           
0.24999048290162496           0.3000116707264934            0.0                           
0.5000119725843744            0.2999811021679663            0.0                           
0.7499762848377187            0.30001255680419825           0.0                           
1.0000128398984989            0.2999664245097151            0.0                           
1.2499613894664627            0.30001339298561686           0.0                           
1.5000136660719805            0.29995112214753833           0.0                           
1.7499458912596892            0.30001421477398726           0.0                           
2.00001449461059              0.29993522798376576           0.0                           
2.2499297882809137            0.30001507636554586           0.0                           
2.500015382769586             0.29991866297102626           0.0                           
2.7499129609785613            0.3000160374182502            0.0                           
3.0000163896159564            0.29990122711012895           0.0                           
3.249895171208729             0.3000171522776037            0.0                           
3.5000070580001665            0.3000528001450235            0.0                           
3.75005137671214              0.3000082746687876            0.0                           
4.000008939654783             0.30004813676201436           0.0                           
4.250046298874092             0.30001036606620823           0.0                           
4.500011119317415             0.30004214437415805           0.0                           
4.750039815265129             0.3000126834034739            0.0                           
5.000013484857477             0.3000346343457191            0.0                           
5.2500317798445275            0.3000151032940775            0.0                           
5.50001591135277              0.30002554770436785           0.0                           
5.750022176264275             0.30001750464803184           0.0                           
6.000018282708543             0.3000149460181062            0.0                           
6.2500110974649035            0.30001978834831794           0.0                           
6.5000205154347555            0.30000294640946296           0.0                           
6.749998669270002             0.30002196084271365           0.0                           
7.000022659211156             0.29998975138080636           0.0                           
7.249985121112341             0.30002393925791543           0.0                           
7.500024537364859             0.29997557081946546           0.0                           
7.7499706716533865            0.3000256854904639            0.0                           
8.000026241859429             0.2999606573475222            0.0                           
8.249955550043875             0.3000273357022269            0.0                           
8.500027880736061             0.29994514391892646           0.0                           
8.749939844160524             0.3000289879769552            0.0                           
9.000029559099803             0.2999290372342264            0.0                           
9.249923519697743             0.3000307590546864            0.0                           
9.500031396783436             0.2999122188540828            0.0                           
9.74990641607352              0.300032768455697             0.0                           
10.00003350968867             0.2998944473668753            0.0                           
5.3256266710685716e-05        0.6000105560334091            0.0                           
0.2500114404899526            0.6000505447605325            0.0                           
0.5000490022431948            0.6000133860624867            0.0                           
0.7500144376146423            0.6000454850950836            0.0                           
1.000043491230098             0.6000166684898002            0.0                           
1.2500178343954498            0.6000389967318679            0.0                           
1.5000364866206786            0.6000202318504549            0.0                           
1.7500214492004054            0.6000309295040777            0.0                           
2.0000278828309876            0.6000238870067963            0.0                           
2.250025094867955             0.6000212647529863            0.0                           
2.5000177013935536            0.6000274613518507            0.0                           
2.750028611816156             0.6000100911297497            0.0                           
3.000006055494689             0.6000308401941166            0.0                           
3.2500319201681735            0.5999975714242988            0.0                           
3.4999931463055347            0.6000339963266781            0.0                           
3.7500349765875756            0.5999839648734775            0.0                           
3.9999792226236925            0.6000368188425703            0.0                           
4.250037692987155             0.5999694789502663            0.0                           
4.499964493310361             0.6000393771715457            0.0                           
4.750040197974012             0.5999543214286488            0.0                           
4.9999491411768675            0.6000418258965358            0.0                           
5.250042645640488             0.5999385950464169            0.0                           
5.499933225461291             0.60004433029241              0.0                           
5.75004520905658              0.5999222714895812            0.0                           
5.999916673431286             0.6000470737708816            0.0                           
6.250048072776574             0.5999051891298149            0.0                           
[...]
POINT_DATA  4141
SCALARS Con float 1
LOOKUP_TABLE default
0.0004050978057767183
0.0004423451404189976
0.0005152598592403279
0.0006008865018340704
0.0006981328211122992
0.0008073599773846345
0.000928853399235626
0.0010626972466636917
0.0012087537515773914
0.001366657939909259
0.0015358210528069233
0.0017154415677910657
0.001904522289046315
0.0021018907563411745
0.0023062183416244484
0.0025160299837572665
0.0027296993636932694
0.002945435700299712
0.0031617237401094646
0.0033819769973069225
0.0036374957142170984
0.003894337724013802
0.004119715667015571
0.004334102767189303
0.004549591951914826
0.0047653876135800455
0.004981649888893866
0.005198822589787466
0.005417765477046756
0.0056396722836699826
0.005866027504248272
0.0060985703269954596
0.0063392647753683536
0.006590272269820595
0.006853924712178104
0.0071326965503324445
0.007429171741232489
0.0077459611876869675
0.008084967881238725
0.008437209055075884
0.008640537691312242
0.0004113552881272954
0.0004494890411804709
0.0005238885927168062
0.0006111371173146534
0.0007101446496922627
0.0008212422087926285
0.0009446842684122457
0.0010805219527646784
0.0012285840951111282
0.0013884736269236823
0.0015595730915817702
0.0017410585823883875
0.001931921544041766
0.002130998031960488
0.002337006318714615
0.002548601070667654
0.0027644684553937053
0.0029836362327575546
0.0032061399570166853
0.003438501433109556
0.0036753929125839073
0.003909314221110487
0.004136534835034388
0.004359527227400781
0.004578332302063381
0.004795759408049087
0.005012742008891117
0.005230239477656018
0.0054493532001358425
0.00567142003231948
0.0058980187106103575
0.006130959238063235
0.0063722641321893245
0.00662414630953
0.0068889847828709485
0.0071692978854113075
0.007467710485430887
0.007786872158232652
0.008128708994505384
0.008484380036117295
0.00868992796530768
0.000407472467274961
0.0004455617274396465
0.0005200720852931893
0.0006076442560925699
0.0007071657075126399
0.0008189597492797934
0.0009432689420357586
0.0010801314099643982
0.001229362967469182
0.0013905552289832615
0.0015630837779464384
0.0017461266679051294
0.0019386945406453487
0.0021396754818986817
0.002347902940856605
0.0025622643380153087
0.0027819081091633377
0.0030065061066622363
0.0032372290888535316
0.0034674232117133724
0.0036859433412585346
0.003904830511694323
0.004133969275807501
0.004360928577079553
0.004583642996745088
0.0048030477798077075
0.005020717301744955
0.005237976458790342
0.005456190701517639
0.005676859800237699
0.005901671676548942
0.006132517009041518
0.006371485957099268
0.006620855025874246
0.006883068181684295
0.0071607135102928
0.007456492629947855
0.0077731389559866
0.008112677302256063
0.0084662943452597
0.008670708245700943
0.00040073412861061546
0.000438836656135971
0.000513558708265878
0.0006016626021214257
0.0007020343072952387
0.0008149802392394987
0.000940722619918324
0.0010792765018770953
0.0012304335015506666
0.0013937615910520266
0.001568615463627613
0.0017541580488594243
0.0019493945387628092
0.002153221069485815
0.002364489947529318
0.0025820916528613565
0.002804999506930298
0.0030322323630422054
0.003260858233681412
0.0034866187577681598
0.0037093989484666304
0.0039308585461931556
0.004153188292170891
0.004377276410198437
0.004599399478927166
0.00481868536964521
0.005035715701316241
0.00525163911235289
0.0054678273394612705
0.005685849364797788
0.0059074736859886495
0.006134673527621777
0.006369623772360147
0.006614690879522663
0.006872417200138259
0.0071455003582871065
0.0074367645840860384
0.007749080433415415
0.008084622656765756
0.008434815800084077
0.008637555527792648
0.00039121793976232006
0.0004293399606344942
0.0005043769359990498
0.0005932446411801363
0.0006948237189249022
0.0008093971050130504
0.0009371567720513387
0.0010780831178580721
0.0012319298404577367
0.0013982246031157693
0.0015762798462390544
0.0017652138197995725
0.001963981688271528
0.0021714147299333694
0.0023862610090891576
0.0026072026028463344
0.0028328094198275164
0.0030611669765292864
0.003289941244843917
0.003517230290703396
0.0037419976647692344
0.003964937155336626
0.004187041149923721
0.004408105284128989
0.004627620710634487
0.004844703813759427
0.005059420401526768
0.005272544287628946
0.005485300781872903
0.005699227690023868
0.005916124836450145
0.006138030786847895
0.006367208381149516
0.00660613079521741
0.006857465598688093
0.007124055220184032
0.007408889755547986
0.007715028181745441
0.008044864411360965
0.00839016693167729
0.008590505105180371
0.00037885072790716474
0.0004170118375484965
0.0004924781547997348
0.0005823542719187842
0.0006855110853026958
0.0008021993112349389
0.000932570263106443
0.0010765572925139884
0.0012338613059362628
0.001403951238364176
0.0015860736318804125
0.0017792707449383965
0.001982405666801343
0.002194190373237979
0.002413207140884199
0.00263790907900551
0.0028665645941694903
0.003097270997123843
0.003328121428500966
0.0035575021836435246
0.0037845511487178936
0.00400904239103591
0.0042310582882956055
0.004450624835391299
0.004667439398228788
0.0048813276167321475
0.005092405213822606
0.005301313580764182
0.005509162290704306
0.005717443543024937
0.005927969819162589
0.006142836640281548
0.0063643981032027635
0.0065952480456736295
0.006838202555253179
0.007096280982826004
0.007372680417799951
0.007670699810831526
0.007993018057036914
0.00833184962865518
0.008528989498286723
0.0003635664297370332
0.00040179182344806524
0.00047781530657036917
0.0005689589869553636
0.0006740784053686064
0.0007933828156591815
0.0009269722650305401
0.0010747209115306577
0.0012362625142787653
0.0014109898381546514
0.0015980621019906496
0.0017964197160163676
0.002004804720794115
0.0022217835156175367
0.002445767203636334
0.002675024435610259
0.002907709120587064
0.003141929472452439
0.00337588802045398
0.003608090005262934
0.0038374688000957628
0.004063411542004455
0.004285609465380044
0.004503872610259103
0.004718097858576352
0.004928300558140662
0.0051347877531806585
0.0053382398172285685
0.0055397536612918265
0.00574081803097904
0.005943275343871629
0.006149288032535095
0.006361312773813201
0.006582080274095808
0.006814577830046505
0.007062031886887366
0.00732788529331881
0.007615725750287764
0.007928577583338148
0.008259206496730212
0.008452267566404674
0.00034531774117146685
0.0003836375057693661
0.0004603564285618374
0.0005530394978824846
0.000660519664198699
0.0007829551113564653
0.0009203845917516148
0.001072612221788292
0.001239192213634604
0.0014194265043333543
0.0016123697378923824
0.0018168413241505693
0.00203144388610606
0.0022545869014408437
0.0024845147158700396
0.0027193435553980357
0.0029571160260834883
0.0031958857926830835
0.0034338344048650887
0.0036693906044075234
0.0039013219656326083
0.004128749548992863
0.004351102979836439
0.0045680584396212654
0.0047794999165365155
0.0049855505544809655
0.0051866237434097014
0.005383486898372157
0.005577289963708578
0.0057695687922714334
0.00596222825878751
0.006157520068482068
0.006358022080188431
0.0065666210536819486
0.006786498103887144
0.00702111492717031
0.007274195673894558
0.007549661432411337
0.007850940182662927
0.008171462691888735
0.008359463367296417
0.0003240974446402618
0.00036254248493415353
0.0004400991372334794
0.0005345998938908335
0.000644846557985769
0.0007709366678844792
0.0009128389767814823
0.0010702790079130846
0.0012427220346458523
0.0014293680576077947
0.0016291539634670069
0.0018407634469824834
0.0020626452890277775
0.002293040491900267
0.0025300197410057213
0.002771533913292112
0.0030154816760673505
0.003259795475168913
0.0035025391168253556
0.003742002601886204
0.003976771305132114
0.004205758897789669
0.00442820509723858
0.004643657366283412
0.004851962043419353
0.005053272126589956
0.005248074868998057
0.005437219449472262
0.00562193736885982
0.005803847099788134
0.00598494745789424
0.0061676047653962856
0.006354539278575459
0.006548813636871803
0.006753823878700066
0.006973291802698479
0.007211253901239608
0.007472004693962474
0.007759431088843981
0.008067747565910586
0.00824958800808068
0.00029996299757968636
0.0003385581999703052
0.00041708691105989896
0.0005136781092585588
0.0006270929675594745
0.0007573594235546554
0.0009043697536225583
0.0010677656720033898
0.0012469179813013747
0.0014409174878389599
0.0016485733724738705
0.0018684206771014537
0.0020987386607420836
0.002337581586910677
0.002582823388136935
0.0028322174442510775
0.0030834714908577615
0.0033343347464007936
0.0035826901890006436
0.003826640562323717
0.004064577038504216
0.004295223102228605
0.004517655215148064
0.0047313089068019894
0.004935980628229228
0.005131833914722134
0.005319409643947586
0.005499637886366466
0.005673845389217713
0.005843756873701973
0.00601149031238778
0.00617954941549498
0.006350816329791187
0.006528546914395098
0.0067163692995268805
0.006918284864653207
0.0071386671017223844
0.007382217345545971
0.007653331006399465
0.007947128171191867
0.00812157616147913
0.0002730653105725102
0.00031181884175021196
0.00039142693781628524
0.0004903561508241676
0.000607317418073868
0.0007422615932450137
0.0008950014369346009
0.0010650942371412916
0.0012518156765921335
0.001454144364603752
0.0016707545087289986
0.0019000196243898555
0.0021400300976371807
0.00238862675265313
0.0026434516087132974
0.0029020156364736034
0.0031617813236161597
0.0034202552944877936
0.0036750835173388146
0.003924140213995278
0.004165602049050315
0.004398002653418882
0.004620267107859371
0.00483173029462602
0.005032145181295377
0.005221685980898644
0.005400949286899394
0.005570953334399456
0.0057331351635233115
0.005889345431299677
0.006041842095600376
0.006193284966749785
0.006346733377482467
0.00650564859165259
0.006673901466344269
0.006855784509395471
0.007056023823888271
0.00727975137359872
0.007531911820886216
0.0078086534038458045
0.007974334546855096
0.0002436811203509832
0.0002825688992796114
0.0003633086905314091
0.00046476914929924026
0.0005856025028032748
0.0007256777904750919
0.0008847302972717385
0.0010622386098801495
0.0012573890038451384
0.0014690500349494769
0.0016957564377709823
0.001935706683218782
0.0021867781801584198
0.002446562883056361
0.0027124242636678095
0.0029815744147739256
0.003251167525830266
0.003518403505404889
0.0037806336309453214
0.004035459463281181
0.004280817311254987
0.004515043207706882
0.004736916850809747
0.0049456863680648775
0.005141077710407954
0.00532329326926139
0.005493003601027499
0.005651335321881082
0.005799857460967455
0.005940568402136654
0.006075885549135686
0.006208640027514985
0.006342078301307914
0.006479872029530313
0.006626136395269937
0.006785455820707352
0.006962912531243184
0.007164080001470005
0.007394480394027877
0.007651409862214979
0.007806804141089679
0.00021224772006768572
0.00025119196437115737
0.00033302188157263257
0.0004371118399143893
0.0005620499311805742
0.0007076231592705247
0.000873498716753037
0.0010590909324788087
0.0012635109093389564
0.0014855260380373153
0.0017235305963701844
0.0019755336618290952
0.002239169883074072
0.00251173672046245
0.002790259100959628
0.0030715793024743664
0.0033524667184913746
0.0036297394393777086
0.0039003878528986622
0.00416169022104381
0.004411311506013285
0.004647379514380207
0.004868535812555573
0.005073962341073654
0.005263387181704314
0.005437074470943271
0.005595803893828211
0.005740844902619565
0.00587393033748037
0.005997233379573384
0.006113351354741987
0.006225299115619193
0.006336514143465079
0.006450874503318663
0.006572729704187937
0.00670694309563643
0.006858941110546222
0.00703473306329966
0.00724043035039046
0.007474589607284514
0.007618036509929323
0.00017939730970421402
0.0002182382899348537
0.0003009715489782106
0.00040764062500666894
0.0005367696516171013
0.0006880702766376026
0.0008611611770694598
0.0010554187895946935
0.00126990490969431
0.0015033039064004845
0.0017538735558772912
0.002019418373336308
0.002297293267116217
0.002584442412584548
0.0028774744460726403
0.0031727707349516257
0.0034666192719765994
0.0037553633276279676
0.004035552078109042
0.004304080325133333
0.00455830636599076
0.004796140409017401
0.005016100224510886
0.005217334871948911
0.005399620837498738
0.005563337146175906
0.005709427081524897
0.005839354171845614
0.005955059299098119
0.006058924911932639
0.006153750869618607
0.0062427455235670405
0.006329534219741414
0.00641818645742212
0.0065132616521649585
0.006619871974894563
0.006743757022294079
0.006891336176738982
0.007069301198226327
0.007277569447785887
0.007407284342471567
0.00014598627855045106
0.00018444692018633262
0.00026768710858481075
0.00037666896745517395
0.000509861886960452
0.0006669182685897545
0.0008474415540863804
0.0010508128311192823
0.0012760865796999034
0.0015218954022008567
0.0017863716984057012
0.0020670995294618704
0.002361107560548011
0.0026649099354500373
0.002974596561561772
0.0032859681421321413
0.0035947054883564726
0.0038965578696441906
0.004187532696398663
0.004464069006013323
0.004723180036860385
0.004962555061944071
0.005180616563011425
0.005376534572104369
0.005550204714455189
0.005702199631730107
0.005833704651485663
0.005946448618812556
0.006042639317884364
0.006124911317219244
0.006196291960754319
0.006260189421208441
0.0063204051515382
0.006381171810871132
0.00644721668100745
0.006523849297576913
0.006617068302693815
0.006733652993848628
0.006880843662896236
0.007060000381954755
0.007174104587965481
0.00011311205746765917
0.0001507560553885764
0.00023382092152363947
0.00034455438698170775
0.00048139216385757424
0.0006439554512008914
0.00083188312906275
0.0010446257167168157
0.001281295646488521
0.0015405237090919037
0.0018203385346821073
0.0021180874024404406
0.0024304134939554206
0.002753299367599738
0.0030821789744828842
0.00341211180531788
0.003738004034143498
0.004054854691196466
0.004358001328917963
0.004643340194103285
0.004907500569273196
0.005147960461041692
0.005363099668736328
0.005552194579672325
0.00571536560332774
0.005853491921533376
0.005968109574447053
0.006061307835112942
0.006135636467691006
0.006194033411911722
0.00623977940205384
0.006276483265061378
0.00630809981407313
0.0063389807665372114
0.006373958589418652
0.006418462922919345
0.006478666723808309
0.0065616324740317864
0.006675088952903189
0.006821904269628058
0.006918473287344223
8.210540874430483e-05
0.00011829233459995244
0.00020013224355162326
0.0003116764266257248
0.00045136329676522164
0.0006188198909043912
0.000813794169783961
0.0010359053560175004
0.0012844218612433908
0.0015580487667968353
0.0018547478644618455
0.0021716139813067925
0.002504828959167034
0.0028497080470692845
0.003200843036976608
0.0035523335156147206
0.003898084206909515
0.004232135744370234
0.004548990797423015
0.004843898906812484
0.005113071144980391
0.005353808088171925
0.005564538370210723
0.005744777507691911
0.005895025595605711
0.006016626858506306
0.006111614343837477
0.006182560307155458
0.006232448090161902
0.006264576533524708
0.006282503123459622
0.006290028693474475
0.0062912239752924955
0.00629049710493458
0.006292701027221717
0.006303280457722737
0.006328460555063383
0.006375460154928301
0.006452426878167142
0.006563771778530147
0.006640896624296844
5.4488760086225735e-05
8.8328441676348e-05
0.00016744976148257287
0.00027841666197235516
0.00041969383821592035
0.0005909594781664296
0.0007921935529991666
0.0010233296382837667
0.0012839326687648811
0.0015728942120397803
0.0018881694427945383
0.0022265890267143484
0.0025837772558628194
0.002954200006708206
0.003331351736375456
0.003708070278082346
0.0040769471511012245
0.004430783428574007
0.004763032784701561
0.005068176242342045
0.005341986983894072
0.005581664475116609
0.005785839339394029
0.005954469221897723
0.006088657600436287
0.006190431696518742
0.006262513233340117
0.00630810931802529
0.006330742434738881
0.006334130554902629
0.0063221218491952185
0.006298684018996552
0.006267945683649313
0.006234286466849231
0.0062024726907279745
0.0061778373919393545
0.006166504152016431
0.006175660607827238
0.00621367341601598
0.006286665472538432
0.006342557008133135
3.184951020854631e-05
6.219334082691035e-05
0.0001366542300338259
0.0002451559682582693
0.0003861819409678793
0.0005595910225557494
0.0007657697286222149
0.0010051603862248285
0.0012778201359871309
0.0015829907032618655
0.0019187188113513106
0.0022815718510486595
0.002666497902797911
0.003066869764944186
0.0034747321903119805
0.0038812394815230244
0.0042772353382647425
0.004653896655270779
0.005003348951444414
0.0053191669421790485
0.005596699455894565
0.0058331938843637346
0.006027732589290705
0.0061810213308486125
0.006295085070649335
0.006372927378942192
0.006418201700434376
0.006434929054962691
0.006427282642887871
0.0063994475795508396
0.00635555544954167
0.006299688252075169
0.006235944764597953
0.0061685622016537855
0.006102088299534904
0.006041599996163585
0.005992968961301129
0.005963150281290185
0.005960430185043094
0.005992259801370476
0.006025217931464698
1.589611341963079e-05
4.1246928840759445e-05
0.00010864855880796618
0.00021219361098953138
0.00035049991925023837
0.0005237645975336373
0.000732978099536638
0.0009793500205930981
0.0012637010801460537
0.0015858657873235459
0.00194414455426132
0.0023348731011724765
0.0027521846949659077
0.0031880350124115684
0.003632529396974382
0.004074541971833012
0.004502553958028445
0.004905585770025801
0.005274071159822546
0.005600535216502207
0.0058799854409837616
0.006109991104246873
0.006290487634205731
0.006423385022574235
0.006512074135529812
0.0065609185054331534
0.006574797287477938
0.006558740070250534
0.006517670502264249
0.006456258824639653
0.006378872948560178
0.0062896137671241414
0.006192420664865891
0.006091236240920041
0.005990223636621655
0.005894034383614836
0.005808124838582014
0.00573912923270362
0.00569505466779377
0.00568444028167834
0.005692798740670104
0.0003210193257206472
0.0004933845827249437
0.0009586414444604004
0.0019802928086547385
0.002402663068914707
0.0033325642143447447
0.003817736580166691
0.004759615944460172
0.005188442457387157
0.005906073084130631
0.0061816306209411245
0.006398489664686637
0.006558034393649853
0.006663929775092177
0.00672137861360235
0.0067364154911307254
0.006134932837912475
0.006002916322934934
0.005517553151130561
0.0054355331126253814
0.00537030919434382
7.458515645617211e-06
2.8302299785242882e-05
8.83682383194326e-05
0.0001862402621293376
0.0007051821192103152
0.0012555817561158056
0.0015965971496124877
0.0028567310355280813
0.004298223859098696
0.005573371407202974
0.006715318617860644
0.00666417783188543
0.006588623864017996
0.006493702675222795
0.006383869664641571
0.006263077057122825
0.005870643590430373
0.005742183469542316
0.005622433624208705
0.005385461294588767
5.723191871137784e-06
2.163200817479038e-05
7.387724144072265e-05
0.00016502281170670843
0.00029411044729812556
0.0004621717091246873
0.0006716582417321388
0.0009256128018103006
0.0012267286631207947
0.0015763868449723678
0.0019737149682172023
0.0024147862669517545
0.0028921126778774318
0.0033945940045674227
0.00390803502564521
0.004416232597559518
0.0049024906240957
0.005351291521883196
0.005749797414100068
0.00608889871614172
0.00636365828063674
0.006573156620104621
0.006719873518130956
0.006808804823371644
0.0068465131982467595
0.006840265277365563
0.006797346533950516
0.006724586859299938
0.006628088885161285
0.0065131277652469895
0.0063841835026765045
0.006245069929068519
0.006099132309853403
0.005949496262445383
0.005799360939251803
0.005652337664478918
0.005512847077495975
0.005386575150687992
0.005281031448229471
0.005205590164134152
0.0051758647099837424
6.502183929009738e-06
1.7839218992836157e-05
6.276936809047258e-05
0.0001474445942472619
0.00027100103675752404
0.0004347929557279277
0.0006419511530595182
0.0008964023663267664
0.0012018058378506313
0.001560422100504217
0.0019719770500022213
0.00243265181184462
0.0029343983469355167
0.0034648025009565817
0.004007662360217726
0.004544307845684838
0.0050554869083162075
0.00552345843404623
0.005933849395339148
0.006276899991181206
0.006547908344916492
0.0067469098044998475
0.006877796767135565
0.006947157060266057
0.006963089266635724
0.00693417832141889
0.006868725716081606
0.006774254147119986
0.006657257797379677
0.006523147239069814