# vtk DataFile Version 2.0
time_10.vtk
ASCII
DATASET UNSTRUCTURED_GRID
POINTS   4141  float 
6.380026056547765e-05         -1.5167092690203487e-17       0.0                           
0.24999999999999958           6.091248647564004e-05         0.0                           
0.5000592297739322            -6.022526045138191e-18        0.0                           
0.75                          5.5320840506462856e-05        0.0                           
1.0000530728181576            -1.1728233514315798e-17       0.0                           
1.25                          4.794848085462746e-05         0.0                           
1.500045061422303             -5.988677268418075e-17        0.0                           
1.75                          3.862549653233855e-05         0.0                           
2.0000350777779587            -1.9710213277741802e-17       0.0                           
2.25                          2.73406564427205e-05          0.0                           
2.5000231647051803            -1.343263391548742e-17        0.0                           
2.7500000000000004            1.4253467219500563e-05        0.0                           
3.0000095592236184            2.2032949777119775e-17        0.0                           
3.25                          -2.428421791663928e-17        0.0                           
3.499994307007757             1.635076338058442e-17         0.0                           
3.75                          -1.7062176255784965e-05       0.0                           
3.999977136392941             1.9478685986329024e-17        0.0                           
4.25                          -3.4762144497550566e-05       0.0                           
4.499959144102388             6.299345238547126e-17         0.0                           
4.75                          -5.331758013106621e-05        0.0                           
4.999940318167611             -6.068978290707409e-17        0.0                           
5.250000000000001             -7.26786325625431e-05         0.0                           
5.499920683147271             -3.685904233454506e-16        0.0                           
5.75                          -9.290088756590733e-05        0.0                           
5.999900136556457             -1.1750450953177655e-16       0.0                           
6.25                          -0.00011418471458326839       0.0                           
6.499878429736471             -2.870432570398794e-16        0.0                           
6.75                          6.357468092132571e-05         0.0                           
7.000062208136712             4.020646184775653e-06         0.0                           
7.250004432617135             5.901097651596869e-05         0.0                           
7.500057152449684             5.320543671945703e-06         0.0                           
7.750005792120142             5.285658425779184e-05         0.0                           
8.00005040080479              6.77777893490436e-06          0.0                           
8.25000728635871              4.4841617604759706e-05        0.0                           
8.500041731322488             8.320926482493638e-06         0.0                           
8.75000884134152              3.484689589070269e-05         0.0                           
9.000031077590696             9.875080050758495e-06         0.0                           
9.25001038336218              2.291083708299041e-05         0.0                           
9.500018529111562             1.1370631388951831e-05        0.0                           
9.75001184451455              9.215198912393846e-06         0.0                           
10.000004280930984            1.2741261957823753e-05        0.0                           
1.3276714106088914e-05        0.2999938026313575            0.0                           
0.24998827919792788           0.30001419917236405           0.0                           
0.5000145924212749            0.29997681966100026           0.0                           
0.749970922847633             0.3000153578094055            0.0                           
1.000015730358991             0.29995882869361973           0.0                           
1.2499526405139842            0.3000164604320121            0.0                           
1.500016821627051             0.29993999631418494           0.0                           
1.7499335417053792            0.30001754782230056           0.0                           
2.0000179180018822            0.2999203581771791            0.0                           
2.2499136200170278            0.3000186861871823            0.0                           
2.5000190897041               0.2998998136592304            0.0                           
2.7498927250576917            0.30001994879977406           0.0                           
3.0000204092013694            0.29987811343923476           0.0                           
3.2498705606751774            0.3000214021512651            0.0                           
3.500007249855008             0.30006153878625685           0.0                           
3.7500600293673223            0.30000885247375575           0.0                           
4.000009722043229             0.30005650024079367           0.0                           
4.250054454829927             0.3000115771023747            0.0                           
4.500012552679686             0.3000497507931913            0.0                           
4.750047077175532             0.3000145727547854            0.0                           
5.000015605949116             0.3000410639999875            0.0                           
5.250037721241162             0.3000176905710754            0.0                           
5.500018731211943             0.3000303694325656            0.0                           
5.750026367869143             0.3000207842439262            0.0                           
6.000021787870494             0.30001774118179303           0.0                           
6.250013127493145             0.3000237334820793            0.0                           
6.500024676186756             0.30000330616726806           0.0                           
6.749998132354481             0.30002657057821386           0.0                           
7.000027491226648             0.2999873056914861            0.0                           
7.249981663313808             0.3000291715949812            0.0                           
7.500029956196467             0.29996998984570306           0.0                           
7.749963986769534             0.30003146691567484           0.0                           
8.00003220115878              0.29995168888555074           0.0                           
8.249945403780844             0.30003364766097324           0.0                           
8.500034369196134             0.29993257187629196           0.0                           
8.749926023795503             0.30003583462015293           0.0                           
9.000036589497483             0.29991264570452636           0.0                           
9.249905802728152             0.30003817153817686           0.0                           
9.500039009626844             0.2998917620282829            0.0                           
9.749884540093797             0.3000408052743631            0.0                           
10.000041771716445            0.2998696205413063            0.0                           
6.176806291038612e-05         0.6000108373722143            0.0                           
0.2500120055690456            0.6000589245713553            0.0                           
0.5000572594337757            0.6000145549024283            0.0                           
0.7500159243200616            0.6000533718931299            0.0                           
1.0000511263783363            0.6000188165244225            0.0                           
1.2500203231144393            0.6000459883650245            0.0                           
1.500043084444562             0.6000234147958877            0.0                           
1.7500249828158332            0.6000365931676609            0.0                           
2.0000330060844806            0.600028122141707             0.0                           
2.2500296782771976            0.600025162302204             0.0                           
2.5000209148569605            0.6000327309020946            0.0                           
2.7500342178901196            0.6000117968413327            0.0                           
3.0000069384915964            0.600037108476586             0.0                           
3.2500385169119665            0.5999966836973978            0.0                           
3.499991317577919             0.6000412376003355            0.0                           
3.750042524670849             0.5999801472787627            0.0                           
3.999974359296732             0.6000449452597427            0.0                           
4.250046095943445             0.5999624336604618            0.0                           
4.499956316545012             0.6000483184933032            0.0                           
4.750049404025369             0.5999438083712426            0.0                           
4.999937424926391             0.6000515595571854            0.0                           
5.250052645186781             0.5999244031871291            0.0                           
5.4999177602882385            0.6000548737245647            0.0                           
5.75005603374446              0.5999041833221165            0.0                           
5.9998972322272595            0.6000584875444391            0.0                           
6.250059797342374             0.5998829475332643            0.0                           
[...]
POINT_DATA  4141
SCALARS Con float 1
LOOKUP_TABLE default
0.00042313532659069036
0.0004760571639362469
0.0005785489476821046
0.000700133270519669
0.0008396051221586149
0.000997677961397746
0.0011749293595797804
0.0013716266031079771
0.001587694241300287
0.001822703536554833
0.0020758746373621476
0.0023460896713998706
0.0026319140999664834
0.002931621556696918
0.0032432139465823078
0.003564422706037005
0.0038926801759777427
0.004225096691043234
0.0045592069068302685
0.004902516549672164
0.005314786484066913
0.00573029119879983
0.00608630894809081
0.006424750671101725
0.006766953506631575
0.007111371580998353
0.007458031206240704
0.0078074283389129645
0.008160751973592834
0.008519738207570704
0.00888659394498411
0.009263934869229619
0.009654735067051763
0.010062281177091851
0.010490127637638956
0.010942050461067285
0.011421993443320403
0.011933938716578812
0.012480760306748329
0.01304813008661838
0.013376348728170803
0.0004296037167150584
0.0004838530437878905
0.0005884987931062287
0.0007124734117932598
0.0008545734000083593
0.0010154693126635376
0.0011956932355026053
0.0013954633721877166
0.0016146543893450212
0.0018527896866080435
0.0021090471955493013
0.0023822776914966637
0.0026710348804579076
0.00297361701671516
0.0032881226144754125
0.0036125365814611314
0.003944898396391819
0.004283861398915286
0.004630076279869155
0.004995535753170368
0.005371272658738276
0.0057437635486074085
0.006105659837910114
0.0064604095126450725
0.006809207231719783
0.0071570140520262
0.007505339164098405
0.007855628353802711
0.008209512480756983
0.008568983889087596
0.00893641446635901
0.009314541368049715
0.009706437529466833
0.01011547585106581
0.010545289309570272
0.01099972692926656
0.011482800512609163
0.01199855624505667
0.012549905898327296
0.013122738723568634
0.013454510615984865
0.00042476583541775626
0.00047889784004325435
0.0005836136464597072
0.0007079509969050192
0.0008506855312646038
0.001012482878334683
0.0011938643020774483
0.0013950359076284377
0.001615860912494278
0.001855854976263158
0.0021141968133973977
0.0023897549573374407
0.0026811333837388476
0.0029867424668161857
0.0033049115718292374
0.0036340780062706843
0.003973156650554206
0.004322035632631358
0.004683200953459715
0.0050451602435219265
0.005386215158451081
0.005729352277818857
0.006094403076452929
0.006457439481411909
0.006814059589736968
0.0071660891798833075
0.007516241192943037
0.00786667084676897
0.008219509604592253
0.008577055677203925
0.008941882366202811
0.00931687238267842
0.009705217830257481
0.010110401280970965
0.010536165900069177
0.010986477501272613
0.011465474856105275
0.011977340778766424
0.012525142111237226
0.013094793863644457
0.013424782125573492
0.0004163570789374705
0.00047042844083454276
0.000575289491897474
0.0007002145356491587
0.0008439903674981753
0.0010072688612810796
0.001190552128525569
0.0013940234703848716
0.0016175223437297581
0.0018605425464735359
0.0021222466904429727
0.0024014983413237897
0.0026969147341219493
0.0030069445864949087
0.0033299753579197917
0.0036644701360582935
0.004009037236022692
0.0043623156615235645
0.004719364198033154
0.005072305281086336
0.00542125180337046
0.005769606249293349
0.006121698927807059
0.006479393943618921
0.006835459627088582
0.007187960494742833
0.007537743705047963
0.007886612994618411
0.008236703736877467
0.008590435315121875
0.008950522310875975
0.009319990469883773
0.009702176782691151
0.010100715863482497
0.010519515496487138
0.010962722984493854
0.011434678008881084
0.011939784602265698
0.012481346223294693
0.013045642800797423
0.013373006438108395
0.0004045039533795295
0.00045848633524247096
0.0005635697692076971
0.0006893358556589271
0.000834583672991527
0.0009999455675172835
0.0011858938502220032
0.001392575702037706
0.0016197899415067837
0.0018669864736781208
0.0021332811954121378
0.0024174867944704607
0.0027181594552329286
0.0030336582435320633
0.0033622051095690882
0.00370189979976932
0.004050610280782014
0.004405273438001997
0.004761916350158626
0.005117353773306494
0.005469903584081646
0.005821123317622033
0.006173088382668703
0.006525468228964838
0.006877230256006225
0.007226482264915581
0.007573027632407899
0.007917938635389877
0.008263051470103032
0.008610707765018561
0.008963662556959342
0.00932504522536246
0.00969833693339216
0.010087348762556464
0.010496195609333027
0.010929263272137231
0.011391162455572819
0.011886601782906774
0.012419233961849385
0.012975884881343571
0.013299503593835181
0.00038914019553592285
0.0004430216073351581
0.000548411714924921
0.0006752812117976354
0.0008224406904498744
0.0009904942718467658
0.0011798729670353205
0.0013906731451138856
0.0016226340863142296
0.0018751366214399688
0.0021472152036690734
0.002437582585600408
0.002744664486427811
0.00306663696662513
0.0034014490483420478
0.0037468036262790928
0.004100034533831932
0.004458099637890262
0.00481789312686096
0.005176770926653804
0.0055334363199570635
0.005887705446795663
0.006239886823239585
0.00659008273983065
0.006937644621894814
0.007282040538650014
0.007623170930188157
0.007961830867361767
0.008299612905261447
0.00863874700868782
0.00898198676623006
0.009332542858773532
0.009694040496939147
0.010070486957328465
0.010466241051059467
0.010885979453192219
0.011334651913591811
0.011817357540709993
0.01233820965433824
0.012884740402983917
0.0132033641745785
0.00037022352972238
0.0004239943551631159
0.0005297837705082529
0.0006580278471343021
0.0008075466433514163
0.000978906559567752
0.0011724856240536397
0.0013883152381204496
0.001626057296878949
0.0018850003515405174
0.0021640670746774534
0.0024618318139246207
0.0027765454287920553
0.0031061613663259783
0.0034483546291481765
0.0038005251368107176
0.004159826539133518
0.004523277789440241
0.004888005178207692
0.005251626643110892
0.0056124737389712034
0.005969637200091387
0.006322677657784342
0.006671267804584396
0.007015126193955337
0.007354071980114965
0.0076883580673316855
0.008018835976104774
0.008347048121067574
0.00867518928159794
0.009006039486003575
0.009342904385079636
0.009689569404350323
0.01005026329236524
0.01042962590018019
0.01083267528194127
0.01126476570976195
0.011731469296794984
0.01223745968202217
0.012771140825613907
0.013083386163580573
0.0003477519153808207
0.00040140236136451413
0.0005076846371889264
0.0006375775524191785
0.0007899065139951351
0.0009651902942908538
0.0011637433688981894
0.001385520434616828
0.0016300918497836527
0.001896636065233392
0.002183941855213205
0.0024904199396668836
0.002814122869044078
0.003152771310204043
0.003503785934584379
0.0038643343715306635
0.0042314113873965905
0.00460197632347001
0.004973155261917259
0.005342449237503176
0.00570789610429464
0.006068089105353031
0.0064220871757072915
0.006769294386422669
0.007109384241380688
0.007442359508665375
0.007768652953376796
0.008089256145428625
0.008405783179323325
0.008720485832321786
0.009036228341267018
0.009356449745532878
0.009685127085533188
0.010026743158511762
0.01038625774673203
0.010769079072566788
0.011181027475867883
0.011628224535341021
0.012116001899406842
0.012633819591857743
0.012938138860411402
0.0003217942395886213
0.00037530653582659615
0.0004821635799505337
0.0006139704493470249
0.0007695522415842689
0.0009493703743618278
0.0011536675425364144
0.0013823141067634465
0.0016347802930856588
0.0019101234813273338
0.002206984626799699
0.0025235949441157323
0.002857794092131381
0.003207061299902592
0.003568563026245795
0.003939223630900335
0.004315827969394377
0.004695160235166912
0.0050741669025317305
0.005450118399944081
0.005820726134351479
0.006184195985554205
0.006539219359126904
0.006884937396377303
0.007220925618818989
0.007547212366989845
0.007864337385543122
0.00817341275563359
0.008476171159630798
0.00877498376364664
0.009072854786144394
0.009373401629586248
0.009680830788197746
0.009999914835232883
0.010335971793402097
0.010694845143953427
0.01108287704598872
0.011506809309605731
0.01197272705886328
0.01247134083411725
0.012765992247596334
0.0002925245398094755
0.00034586105199314995
0.0004533424362677352
0.0005872985150559785
0.0007465474394562247
0.0009314845442452604
0.0011422762104872683
0.0013787065742608526
0.0016401441033274985
0.0019255215191551565
0.002233324842385903
0.0025615945877025797
0.002907942491379746
0.003269587278338007
0.0036434132315393756
0.004026055345137231
0.004414012818342154
0.004803787023741637
0.005192032254124754
0.005575698769568854
0.005952148310846363
0.006319228269405699
0.006675307369644835
0.007019288351987765
0.0073506162213778205
0.007669297356210439
0.00797592841139718
0.008271729400318862
0.008558568746188147
0.008838975396609078
0.009116137201529659
0.00939389079410509
0.009676708273529639
0.009969685178098276
0.01027853132054488
0.010609563404733536
0.010969692503948872
0.011366342582217725
0.011806440722318397
0.012282150215107458
0.012565171897127036
0.00026026055683276333
0.000313346436197111
0.00042143872506212584
0.0005577179105782488
0.0007209886085898742
0.0009115734446248654
0.0011295633612627026
0.0013746620173610573
0.001646143052630463
0.0019428189964758522
0.0022630197648361625
0.0026045858827135693
0.002964881751296268
0.0033408336558978765
0.0037289960056275055
0.004125647245877996
0.00452691339213549
0.004928912387642625
0.005327907168565423
0.005720452238362508
0.006103518969945847
0.0064745906905290486
0.006831726547737864
0.007173600630023382
0.0074995264822107196
0.007809474954409676
0.00810408993916884
0.008384700887145408
0.008653330511630017
0.008912695815390424
0.009166203727212326
0.009417944287543473
0.009672685257960894
0.009935871135508622
0.01021362781137624
0.010512771777143862
0.010840817001742038
0.01120591777815082
0.011615919404227862
0.012064643639612481
0.012333834132912815
0.00022550523040037906
0.0002782043995202614
0.00038678834019479876
0.0005254586903633713
0.0006930015374462586
0.0008896638501026
0.001115469666762335
0.0013700580762024326
0.0016526256584101647
0.0019618787942064105
0.002295996474251534
0.002652611160030036
0.003028815096681497
0.0034211980214358495
0.003825919691455811
0.00423881723909318
0.004655543051985225
0.005071724310402588
0.00548313151034492
0.005885841500953134
0.006276381795231507
0.00665184698909383
0.007009983869529095
0.0073492473531968526
0.007668832653888707
0.00796869028802439
0.008249529323957734
0.008512812720039946
0.008760747627998531
0.008996273208123328
0.009223049034053481
0.009445447714189342
0.009668554987289918
0.009898179772431088
0.01014087487986126
0.010403966924645546
0.010695588397989012
0.011024652552788023
0.011399980589680704
0.011817256329843946
0.012070164973842194
0.00018898809746086703
0.00024107169079736637
0.0003498654735043534
0.0004908299042131055
0.0006627312772163384
0.000865743785650884
0.0010998437781363872
0.0013646352681189594
0.001659269716747459
0.001982373740140994
0.002331988698518508
0.0027055327686121007
0.0030997956064727867
0.0035109733075821205
0.003934747625196476
0.004366408537510881
0.004801013951678362
0.0052335753366425765
0.005659254398476569
0.006073554609382302
0.006472492664116968
0.006852738891950089
0.007211720802500041
0.007547689445574398
0.007859752461224868
0.008147880334461302
0.008412893395235968
0.008656436836527967
0.008880950690093582
0.009089640771144835
0.009286456248078579
0.009476078528245132
0.009663925324134995
0.009856172198285454
0.010059792050212344
0.010282610555240688
0.010533370198349188
0.01082174585649617
0.01115756675780152
0.011538572815088154
0.0117725039112966
0.00015170187996829044
0.00020280853820968227
0.0003112963552801271
0.0004542175848063928
0.0006303240427041104
0.0008397286076587879
0.0010823935990375763
0.0013579355816669453
0.0016655118053430023
0.002003712188964161
0.0023704650663234944
0.002762971442548568
0.0031776817767129894
0.00361032569354662
0.004055999767238719
0.004509311877533851
0.004964573642927601
0.005416026161730716
0.005858079985444605
0.006285548702940781
0.006693857277784769
0.007079210672618609
0.007438714549189187
0.007770446392942108
0.008073481244839927
0.008347880354839736
0.008594653462889054
0.008815706078286814
0.009013782638984022
0.009192415287103153
0.009355886259548944
0.009509210389136925
0.009658142114870923
0.009809209662968678
0.009969776827838736
0.010148130089339272
0.010353582629222424
0.010596541235754526
0.010887842303565974
0.011227457496916695
0.011439493017753457
0.0001149260437085083
0.00016451492234222185
0.0002718619974305604
0.00041607291605663286
0.0005959002859206614
0.0008114185516903171
0.0010626285754369337
0.0013492311796897427
0.001670466112013139
0.002024952932523384
0.00241054777406528
0.00282423724203651
0.0032620888009059204
0.003719272193988676
0.004190159092997291
0.00466849907873149
0.005147660345772172
0.0056209148138096
0.006081741434253276
0.006524119573557658
0.00694278674498879
0.007333441153749758
0.007692878097599394
0.00801905843378796
0.008311115450181383
0.008569312584197984
0.008794967679096936
0.008990360637610387
0.009158640064304967
0.00930374254715081
0.009430335119092657
0.009543788851189781
0.009650188531902127
0.00975638130092799
0.009870064895325954
0.00999991368664162
0.01015573426505579
0.010348595325205667
0.010590301798659002
0.010883204018743606
0.01107024949147806
8.022576525130952e-05
0.0001275250010322648
0.00023248410978130775
0.00037688896865556047
0.0005595205097355967
0.0007804514545600541
0.0010397971892886267
0.0013374467769081857
0.0016728355249627986
0.00204471174080915
0.0024509236259378357
0.0028882554512839565
0.0033523395492884136
0.0038376649382985835
0.004337693464035935
0.004845081641451587
0.005351992005950084
0.00585046516174227
0.006332814835818806
0.0067920055756422884
0.007221976680234867
0.007617885442049095
0.007976255853018295
0.008295032405946286
0.008573550504962871
0.008812443148501173
0.009013507752920515
0.00917955730589459
0.009314277603529974
0.009422108275472692
0.00950816058222535
0.00957818057090424
0.009638562524280019
0.009696414909292628
0.009759679392984031
0.009837302616725635
0.009939455855690785
0.010077754449801126
0.010264885850948832
0.01050569880394019
0.01066456023967775
4.9408940825175726e-05
9.336684704408899e-05
0.00019418889500550152
0.00033716668224128795
0.0005211512020751549
0.0007462593727178725
0.00101282675717089
0.0013210829774602387
0.001670822286325004
0.002061066242170394
0.002489753374646485
0.002953493254938556
0.003447422253495896
0.003965191626842574
0.004499105868572124
0.0050404104960810716
0.005579706979013215
0.006107452457249635
0.00661448822338838
0.007092536955607261
0.007534615539828258
0.007935326106803347
0.008291008677937589
0.008599759758587918
0.008861338348613837
0.009076991591976976
0.00924923639699491
0.009381631746763033
0.009478570742860707
0.00954511437395362
0.009586881265633946
0.00961000151326955
0.009621137725594607
0.009627573500432108
0.009637368403368513
0.009659578934071567
0.009704548405030112
0.009784238156940185
0.009912112688448658
0.010095588989194606
0.010223074131587755
2.4425625966753638e-05
6.367237748886735e-05
0.00015804259795582535
0.0002973865420136795
0.00048064628178858915
0.0007080350381380351
0.000980275680442413
0.0012981544472832835
0.0016620528439277812
0.002071472427055092
0.002524590426400292
0.0030178966277290037
0.0035459644716330846
0.004101404178813078
0.004675028921058067
0.005256236993649841
0.005833579344253537
0.00639544885834047
0.006930805256963061
0.007429843624395283
0.00788452674925746
0.008288929293716643
0.008639375909046024
0.008934388746261176
0.009174484418603229
0.009361873879109653
0.009500120423344138
0.009593804790817496
0.00964823487220463
0.009669224997317049
0.009662958387698569
0.009635937583248618
0.009595021898780837
0.00954754809504098
0.009501529699076139
0.009465932401461721
0.00945102386824047
0.009468805703112303
0.009533195456272984
0.00965446200670415
0.009747551790229266
7.151819525466938e-06
4.002814782570024e-05
0.00012511154592394978
0.00025800653891514544
0.0004377205810690603
0.0006647122209439958
0.0009403202632296867
0.001266171363975891
0.0016435451831825713
0.0020727166143439772
0.002552327356035477
0.003078851603232028
0.003646236043078466
0.004245790248083359
0.004866383391210521
0.0054949607577749115
0.006117338374955574
0.006719178123095265
0.00728700694098218
0.007809133952866714
0.008276343552619792
0.008682291327860246
0.009023589386581526
0.009299620085363204
0.00951215289508904
0.00966485239405504
0.009762761194965185
0.009811824656737295
0.009818502789290749
0.00978949407284234
0.009731579300446807
0.009651582628191177
0.009556441494633772
0.009453375065302878
0.00935014272208648
0.009255385230889307
0.00917904691226526
0.009132839734474697
0.009130635556831329
0.009184926967559293
0.00924074288714199
1.5742638106335401e-06
2.3853901844231492e-05
9.639772332439234e-05
0.0002193621848767802
0.0003919777139671193
0.0006151003758024126
0.0008909475256634939
0.0012223526556054268
0.0016119135364913986
0.002061098398552988
0.0025693601530293203
0.003133350225878609
0.0037463492624486253
0.004398041955561458
0.005074737776645782
0.005760077349388917
0.00643616950238946
0.007085006781593281
0.0076899346343396735
0.008236935684164313
0.008715535987393122
0.009119233782762297
0.009445454277097264
0.0096951206740111
0.009871977595894777
0.009981812744448752
0.010031699585991934
0.010029348598197527
0.009982615147544498
0.009899180513606139
0.00978640009987817
0.009651301495651512
0.00950071139385452
0.009341493044482802
0.00918088136155425
0.00902690983850609
0.00888892354658293
0.00877818787551943
0.008708213412520985
0.008693286043349653
0.0087089375524728
0.00035353513697306465
0.0005718347791100486
0.0011839890458669314
0.002598317003213061
0.003204833658069062
0.004580527752019152
0.0053201651566280456
0.006801637949502192
0.007498563720114958
0.008705488317410555
0.00918789970749958
0.009579926455813674
0.00988070162467088
0.010093594543594462
0.01022512312078554
0.01028381331067418
0.009422842655840709
0.0092119482001282
0.008426995269689333
0.008294650643515913
0.008192545817925332
6.186316830280765e-07
1.6353439936084613e-05
7.632650610375099e-05
0.00018885810749310345
0.000847183499390475
0.001586543143017163
0.0020578304826416338
0.003869733880561622
0.0060680407486876494
0.00813861287266866
0.010279171748375615
0.010220870262219359
0.010118181131817302
0.009979657663608414
0.009813030240409503
0.009625278407625018
0.008999025359707577
0.008791223671263405
0.008597031873319188
0.008215270308337606
5.608125927536194e-06
1.4947125393413896e-05
6.281236210028452e-05
0.00016456210054193092
0.00031959539580310627
0.0005297398216889664
0.000799226762434767
0.0011336412298726438
0.001538655042888464
0.002018644728478726
0.002575229220167558
0.003205867612707856
0.0039027371746590857
0.00465216638636775
0.005434875744947006
0.0062271555757991625
0.007002898550329606
0.007736165025620872
0.008403790564175536
0.008987522746331057
0.009475315799613984
0.009861649101113328
0.010146975866969523
0.010336567966615844
0.010439077612776702
0.010465099973578609
0.010425936572866735
0.010332662975181279
0.01019552540500484
0.01002363841141989
0.009824930292686638
0.00960627884142509
0.009373787875182773
0.009133170179026503
0.008890219431552649
0.00865136802299041
0.008424347785314331
0.008218953436546488
0.008047961080611872
0.00792715461984953
0.007880659401145585
1.3317744614787592e-05
1.5925489396787778e-05
5.282739031549493e-05
0.0001445035321468941
0.0002903905626765333
0.0004926467396114195
0.0007563858543524123
0.0010884577048224694
0.0014960365740544377
0.001985032367409563
0.002558360700305844
0.003214214804705939
0.003944612050619561
0.004734577044293548
0.005562318628595833
0.006400610020679683
0.007219295381976539
0.007988506686420743
0.008681926940339335
0.009279404730647848
0.009768432342129648
0.010144344722227383
0.01040942734769086
0.010571323797398242
0.0106411782822188
0.01063187251487423
0.010556584884397358
0.010427768248877933
0.010256543539653324
0.010052448875023287
0.009823462296306085
0.009576219808532167
0.009316367255900126
0.009049006200487684
0.008779214800661446
0.008512646339437439
0.008256205478256845
0.008018882915379087