# vtk DataFile Version 2.0
time_10.vtk
ASCII
DATASET UNSTRUCTURED_GRID
POINTS   4141  float 
6.188665753187989e-05         4.734442643935727e-19         0.0                           
0.24999999999999944           5.866970206769319e-05         0.0                           
0.5000568636434061            -8.240853988174789e-18        0.0                           
0.75                          5.2795769606506845e-05        0.0                           
1.0000505138330649            1.4377811720399926e-17        0.0                           
1.25                          4.541581059107009e-05         0.0                           
1.5000425896970588            2.265590895559806e-17         0.0                           
1.75                          3.637167765286919e-05         0.0                           
2.0000329804924974            6.085835774410676e-17         0.0                           
2.25                          2.564862827053794e-05         0.0                           
2.500021719123418             -5.131783181593571e-18        0.0                           
2.75                          1.337685736443137e-05         0.0                           
3.0000089937614667            -1.9573412426354132e-17       0.0                           
3.25                          1.785494044415495e-16         0.0                           
3.4999949053722292            -1.2465874338954615e-16       0.0                           
3.7500000000000027            -1.537237947176369e-05        0.0                           
3.999979376144912             1.7938992300264497e-16        0.0                           
4.25                          -3.137589092499253e-05        0.0                           
4.499963129737708             -7.981625898453467e-18        0.0                           
4.75                          -4.8079384624546444e-05       0.0                           
4.999946209715612             1.7868887771356483e-17        0.0                           
5.25                          -6.542521878664893e-05        0.0                           
5.49992864595642              1.598139982331104e-17         0.0                           
5.75                          -8.345864634680327e-05        0.0                           
5.999910350961001             1.1905498484355734e-16        0.0                           
6.25                          -0.00010235422584513765       0.0                           
6.4998911074541645            -2.622258363136635e-16        0.0                           
6.75                          6.17038066487752e-05          0.0                           
7.000060159105837             4.483340694530302e-06         0.0                           
7.2500048211021335            5.668702315534326e-05         0.0                           
7.500054733984467             5.5554853028703135e-06        0.0                           
7.7500059481475265            5.033959377735161e-05         0.0                           
8.00004788118935              6.772816782832433e-06         0.0                           
8.250007199785905             4.24122994868134e-05          0.0                           
8.50003939533044              8.070088351319828e-06         0.0                           
8.750008508338274             3.2793551186029716e-05        0.0                           
9.000029212815058             9.378980433323748e-06         0.0                           
9.25000980691392              2.151400552143601e-05         0.0                           
9.500017409346547             1.063774792832107e-05         0.0                           
9.75001103667093              8.729716364642957e-06         0.0                           
10.000004159376715            1.1793058578449803e-05        0.0                           
1.2216784049701506e-05        0.2999945406412961            0.0                           
0.24998951074829054           0.3000129644653378            0.0                           
0.5000132924339871            0.29997911723143417           0.0                           
0.7499737822973643            0.3000139260082843            0.0                           
1.000014232702435             0.2999628673763069            0.0                           
1.2499572962883683            0.30001483172891014           0.0                           
1.5000151275149687            0.29994594076414016           0.0                           
1.7499401578596874            0.3000157220119168            0.0                           
2.0000160253285095            0.29992837404224754           0.0                           
2.249922365126829             0.3000166561713101            0.0                           
2.500016988557213             0.2999100807827582            0.0                           
2.7499037875001675            0.3000176989157326            0.0                           
3.0000180811505275            0.2998908429999224            0.0                           
3.2498841656788366            0.3000189089229109            0.0                           
3.5000083210149224            0.30005961734700215           0.0                           
3.7500579559382903            0.3000096304832084            0.0                           
4.000010347932289             0.3000542079952986            0.0                           
4.250052097780052             0.30001188969684495           0.0                           
4.5000127049862915            0.3000473572986764            0.0                           
4.750044713170135             0.30001439949065917           0.0                           
5.000015268330133             0.3000388560622832            0.0                           
5.2500356400802906            0.30001702345031167           0.0                           
5.500017899895809             0.300028638661383             0.0                           
5.750024860058664             0.30001962804669735           0.0                           
6.000020471907032             0.30001677306824454           0.0                           
6.250012476441142             0.3000221045152644            0.0                           
6.500022892162031             0.3000033954722927            0.0                           
6.749998637459513             0.3000244488282292            0.0                           
7.000025199258955             0.29998873054874126           0.0                           
7.249983594160861             0.30002658157001694           0.0                           
7.5000272291865135            0.2999730110778811            0.0                           
7.749967585965593             0.30002847233800095           0.0                           
8.000029074714861             0.29995650271414454           0.0                           
8.249950853008759             0.30003025918518733           0.0                           
8.500030849560284             0.2999393468340907            0.0                           
8.749933489276753             0.3000320494390795            0.0                           
9.000032668633896             0.2999215497930646            0.0                           
9.249915456521109             0.3000339701459133            0.0                           
9.50003466208437              0.29990298186325187           0.0                           
9.749896579266471             0.3000361506770462            0.0                           
10.000036955182432            0.29988337997395936           0.0                           
6.023929063744228e-05         0.6000124472612399            0.0                           
0.2500133983091349            0.6000570629741128            0.0                           
0.5000552730843856            0.600015495951214             0.0                           
0.7500166320337455            0.6000512249185327            0.0                           
1.0000489453173695            0.6000190458707648            0.0                           
1.2500203087818924            0.6000438349692493            0.0                           
1.5000409937301393            0.6000229075178978            0.0                           
1.7500242276285993            0.6000347268151373            0.0                           
2.0000313015566378            0.6000268716050434            0.0                           
2.250028181573449             0.6000238803969045            0.0                           
2.500019893587035             0.600030747498373             0.0                           
2.750031994336165             0.6000113962916909            0.0                           
3.0000068989033912            0.6000344064291118            0.0                           
3.250035572890829             0.5999974586528118            0.0                           
3.4999925404682517            0.6000378116987563            0.0                           
3.750038869434298             0.5999823479115908            0.0                           
3.999977089370277             0.6000408605551654            0.0                           
4.250041806195559             0.5999662946372505            0.0                           
4.499960775094387             0.6000436286680966            0.0                           
4.750044517111403             0.5999495202914275            0.0                           
4.999943791366075             0.6000462798657064            0.0                           
5.250047167920734             0.5999321333784368            0.0                           
5.499926200166778             0.6000489938940369            0.0                           
5.750049946835518             0.5999141013866162            0.0                           
5.9999079208678445            0.6000519697509414            0.0                           
6.250053053823266             0.599895247360253             0.0                           
[...]
POINT_DATA  4141
SCALARS Con float 1
LOOKUP_TABLE default
0.0005562677024785584
0.0006027668880137701
0.0006945369078059614
0.0008018881916501719
0.000923315630981489
0.001059198165797705
0.0012098307274566022
0.0013752654070738042
0.0015552872148558697
0.001749409172101379
0.0019568781742146497
0.0021766903263571906
0.0024076140169361025
0.0026482176564972537
0.0028968970817917212
0.0031518937199806166
0.0034113001737506015
0.0036730425618914327
0.0039354235979931285
0.004201362199748023
0.0045028704798079095
0.0048061034956076365
0.005077674110417253
0.00533610210134599
0.0055952712900191395
0.005854362019428889
0.006113685673359479
0.006373859135976717
0.006635971221300779
0.006901492862028526
0.007172229727230366
0.0074502812233032
0.007738005786626935
0.008037988486087715
0.008353008965785617
0.008686008016826974
0.009040048081152002
0.009418215410021408
0.009822750241939704
0.010242934935355991
0.01048490687225787
0.0005653900915636446
0.0006129898217319325
0.0007066253743952428
0.0008159962796337322
0.0009396014401918596
0.00107778206859648
0.0012307949549778853
0.0013986517036569928
0.001581096483973853
0.0017776029962162264
0.001987382649424301
0.002209403031415064
0.0024424159108328695
0.0026849940773387743
0.0029355774938319102
0.0031925371111846037
0.0034542778814885358
0.0037195798658968236
0.0039881857289731865
0.004267304313295314
0.004550690948555591
0.004829936468813259
0.005101531526609958
0.005369069802129815
0.005631618752441857
0.005892343021256594
0.00615233717088987
0.006412773791731444
0.006675003268642123
0.00694065447296312
0.007211638903769919
0.007490136759346789
0.007778573963185421
0.008079595405958873
0.008396035639346261
0.008730886665630449
0.009087258669750273
0.00946828303013294
0.009876226045441734
0.010300537497136336
0.010545168215507349
0.0005603442223621104
0.0006079045452841557
0.0007017055138759103
0.0008115113327216281
0.0009357886629166363
0.0010748671924459318
0.0012289867245786148
0.0013981402962091345
0.001582053082025396
0.001780181255214166
0.0019917230168557216
0.0022156419127052416
0.002450703606772891
0.00269552910484865
0.002948672905689229
0.003208743723045457
0.003474631908599366
0.0037457761954791655
0.004023339230688034
0.00429966013993868
0.0045637777798860375
0.0048281340676787085
0.005102131642968856
0.005373236617899714
0.005639651666043837
0.005902218201769338
0.006162693708914288
0.006422613560220855
0.006683601473517782
0.006947457225509459
0.007216209330260953
0.007492126622844564
0.0077777112966599705
0.008075681521305732
0.008388947885956528
0.008720584907181797
0.00907379417047662
0.009451807226498724
0.0098570077924237
0.010278872468191529
0.010522151988227944
0.0005515798959357846
0.0005991811268730044
0.0006932947459820684
0.0008038167546024156
0.0009292078796702055
0.0010697733591673911
0.0012257242660560384
0.0013970212094433897
0.0015833551183205001
0.0017841479903672195
0.0019985663709215095
0.002225547961464551
0.002463842638082552
0.0027120698834652143
0.0029687942407032623
0.0032326193091210863
0.0035022394203139975
0.0037764257453409234
0.0040518116748680215
0.004323967660960165
0.0045925992959704705
0.004859328848151897
0.005126382218931083
0.005394541372838381
0.005660059010788769
0.0059221789071292235
0.0061815986731269664
0.0064396741784145395
0.00669803557183254
0.006958558201914187
0.00722336003543792
0.0074948033589045965
0.00777548794916169
0.008068236961971072
0.008376076867979606
0.008702211964319561
0.009049989638292373
0.009422804739262202
0.009823219344350018
0.010240992400608445
0.01048227746522548
0.0005391939081391616
0.0005868549798072968
0.0006814320199426136
0.0007929844278941237
0.0009199600363494504
0.0010626302996744584
0.0012211640440588213
0.0013954739523569738
0.0015851987115105136
0.0017897048736079545
0.0020081009793855207
0.0022392638674613653
0.0024818768334115946
0.0027344773337012575
0.0029955070344219203
0.003263337150638389
0.0035362299220186326
0.003811939895888856
0.00408785573989076
0.004361810282160024
0.0046326248951584935
0.004900910285363302
0.005167596703159446
0.00543246063082028
0.0056950030434284584
0.005954408727551273
0.006210889482202739
0.0064654181252949685
0.006719480548991617
0.006974927045718533
0.007233917189484199
0.007498892197798904
0.007772556552428729
0.008057860139740044
0.008357978197038941
0.008676287246264952
0.009016332136373715
0.009381732266393477
0.009775311243905339
0.010187241008631531
0.0104256698206814
0.0005230809387937581
0.0005708384994367664
0.0006660467401399549
0.0007789625523100197
0.0009080136157008804
0.0010534254799644896
0.0012153106620060787
0.0013935175026338143
0.0015876132036992886
0.0017968856979567677
0.0020203567053761347
0.002256805218218357
0.0025047996648407517
0.002762734266603787
0.003028859169566667
0.0033012895602728904
0.003577954360610872
0.003856629257160578
0.004135107966008203
0.004411538650408924
0.004684875939822751
0.0049547737053481375
0.0052212455074587905
0.005484290642268384
0.005743632280324456
0.005999178747497636
0.006251189415149908
0.00650051348633141
0.006748526403930614
0.006997041997183382
0.007248245240698779
0.007504650901438737
0.007769075214854078
0.00804461337386123
0.008334618322192275
0.008642677739556705
0.008972583382173096
0.009328241130463502
0.009712815868137369
0.010117013281682938
0.010351632412243926
0.000503139295285889
0.0005510388239383533
0.0006470666323591383
0.0007617013833330202
0.0008933417361254464
0.0010421546286892365
0.001208181913070525
0.0013911914039836143
0.0015906600898468808
0.0018057750909390353
0.0020354447211583812
0.002278318732085328
0.002532815944617996
0.002797155470754305
0.0030693864313105887
0.0033474103110120853
0.0036290209300980083
0.003911984785628201
0.004194199337604614
0.004473910795298116
0.0047498515842871476
0.0050212654900810465
0.005287757849767862
0.005549110235689424
0.005805248940164858
0.006056279829202523
0.0063026632579628195
0.0065452953362617715
0.006785549824524335
0.0070252498866663765
0.007266626578832055
0.007512281517201352
0.007765157720227117
0.008028516208453
0.008305915480798448
0.008601190815961977
0.008918427339897284
0.00926187569942966
0.009635113507382238
0.010029503889264792
0.010259258074999727
0.0004792854354583951
0.0005273809344568645
0.0006244347254646032
0.0007411652733086626
0.0008759312000229438
0.0010288276161966483
0.0011998119481353734
0.0013885566859189531
0.0015944319426849415
0.0018165047172746037
0.0020535475993426642
0.0023040565314574202
0.002566276802484267
0.002838235832409998
0.003117781593736962
0.0034026314121129815
0.0036904389924295538
0.003978893267256657
0.004265847844027604
0.004549452550683608
0.004828252202185747
0.0051012063679119765
0.005367646343850529
0.005627214348224561
0.005879825823296442
0.006125701224665319
0.0063654170888235335
0.0065999688472657735
0.006830797303957603
0.007059789431963924
0.007289258414135591
0.007521918502698453
0.007760861597823992
0.008009537574734422
0.008271737551356052
0.008551577927033371
0.00885347931221297
0.009182089711246304
0.009541467743811512
0.009923768540720126
0.01014747969371329
0.0004514803803839709
0.0004998300585920003
0.0005981275366708721
0.0007173455900565611
0.0008557899836460542
0.0010134707392378812
0.0011902485494077182
0.001385688300347954
0.0015990398041908294
0.0018292343419753947
0.0020748905804706856
0.002334330428881833
0.002605605379716862
0.002886533655221012
0.0031747493913687466
0.0034677661707538353
0.003763058643625613
0.004058162473387181
0.004350785254077743
0.004638912320234334
0.004920884581225618
0.005195437034653521
0.005461700075019901
0.005719182985589121
0.005967765636052513
0.0062077058568252895
0.006439665741485232
0.006664737331824579
0.006884460557355518
0.007100825135639957
0.00731626125994585
0.0075336243048648045
0.007756179300715992
0.00798758790787229
0.0082318984224256
0.008493537341623272
0.008777296932334746
0.00908826917373632
0.00943105814470651
0.009798750988326251
0.010015098161918284
0.00041976066930914053
0.00046841921863509985
0.0005681758116597509
0.0006902742982958937
0.0008329534562775498
0.0009961256453070624
0.0011795450576915407
0.001382660448807492
0.0016045921397892177
0.0018441241655315667
0.0020997062740062567
0.002369467543079102
0.0026512434008817824
0.0029426174639685474
0.003240979274063121
0.0035435986519997873
0.0038477158888429804
0.004150644012541487
0.004449874933344061
0.004743177315650941
0.005028674399723635
0.005304894380671996
0.005570794989087639
0.0058257713752133036
0.006069657970754614
0.0063027332632686435
0.006525727677286039
0.006739832421056472
0.006946703776259268
0.007148461328051574
0.007347680585268748
0.0075473835137841
0.00775103004696502
0.00796251305075606
0.008186157305963216
0.00842672143676469
0.008689397442796211
0.008979759521099225
0.00930301445519367
0.009653324958621992
0.009860828156176808
0.0003842750808461931
0.00043328117152613107
0.0005346876289698769
0.0006600375599918948
0.0008074883355831522
0.000976843861963426
0.0011677461161205998
0.0013795244921681066
0.0016111660989415442
0.0018613007559794845
0.0021281968722027325
0.0024097713619194096
0.0027036165378683434
0.0030070459700536926
0.0033171600218017843
0.0036309301172247252
0.003945298566500848
0.004257288049900109
0.004564112236757042
0.004863277684047969
0.0051526680966856525
0.005430605750044654
0.005695889871852554
0.005947816203558881
0.006186184288406994
0.00641129796204312
0.006623962744333043
0.006825480857983992
0.007017644221524887
0.007202725614966851
0.00738346962121282
0.007563085579939977
0.0077452449534786035
0.007934084736063524
0.008134217300100385
0.008350745553476722
0.0085892781123458
0.008855897844489381
0.009156460571239124
0.009486348541436165
0.009683357983294439
0.00034532675181140303
0.0003946843812857494
0.0004978729731848231
0.0006267882198567385
0.0007794930315907421
0.0009556755247217797
0.0011548658666236582
0.0013762783097557043
0.001618770284795946
0.0018808160224572134
0.0021604927733376213
0.0024554844499122524
0.0027631069058614154
0.003080357435539489
0.00340398882259474
0.0037306056874630202
0.004056778068390972
0.004379164594667898
0.0046946357801139005
0.005000387625106638
0.005294037097290843
0.005573694231243612
0.005838009424518348
0.006086198236737247
0.006318048142556457
0.006533912602175301
0.006734697148964105
0.0069218413588292
0.007097299704268244
0.007263524021508396
0.007423450162374468
0.007580491449569567
0.00773854094200592
0.00790198384054116
0.008075720114728515
0.008265195968507161
0.00847643878019712
0.00871605081000668
0.008990568002685384
0.009296732429120888
0.009481425636896459
0.0003034193703723529
0.00035307157806349724
0.0004580681841264821
0.0005907554152969248
0.0007490925894138767
0.0009326504585244965
0.0011408567962502539
0.0013728253305467428
0.0016272972056320897
0.0019025971051040353
0.0021966045982886304
0.0025067477101885487
0.002830024661686123
0.0031630571767158103
0.003502175458807981
0.0038435312424422797
0.004183231801026731
0.004517484950230667
0.004842743494274592
0.005155837692780021
0.005454086173611691
0.005735379083924595
0.005998231178597264
0.006241806457719006
0.006465918737131191
0.006671014251829104
0.006858142847494925
0.007028923941407964
0.007185512850312698
0.007330572123970142
0.007467251926339052
0.007599182506946465
0.007730481054435094
0.007865774042784194
0.008010234947467882
0.008169635607782357
0.008350405711589027
0.008559657684327385
0.00880461874283742
0.009083522143315106
0.009253911462728519
0.0002593045770015958
0.00030909807123248194
0.000415757642068904
0.0005522489841028745
0.0007164260981724484
0.0009077497591714701
0.0011255674263044673
0.0013689213138941153
0.0016364632673087633
0.001926384735707644
0.002236365739622346
0.0025635529847794457
0.002904575605247315
0.003255603185242604
0.003612445950800427
0.003970691913139964
0.004325870998813681
0.004673632661322692
0.0050099217838039545
0.005331138155245579
0.005634267508423171
0.005916976277311454
0.006177667267185432
0.006415498151668357
0.006630368556145222
0.006822883858438328
0.006994304871540227
0.00714649241829471
0.007281854779407278
0.007403304813545964
0.007514231849075634
0.007618492259671272
0.007720421034100907
0.007824865533194976
0.00793724118951583
0.008063607245928008
0.008210756346467188
0.008386277830549436
0.008598076657261054
0.00884599363729043
0.008999947333800034
0.0002140250344074173
0.00026366491479794474
0.00037158873952628933
0.0005116556357305067
0.0006816247642359254
0.000880866698786232
0.0011086878847165898
0.0013641077608304963
0.0016457349152392518
0.0019516585511152814
0.002279364089880465
0.0026256882779980596
0.0029868257391201004
0.003358393436091548
0.0037355528199143526
0.004113182081125782
0.004486084412029653
0.0048492132204912206
0.005197893189975032
0.005528017151455407
0.005836202742350073
0.006119898937547228
0.006377439523901918
0.006608047111617312
0.006811796378610918
0.006989548480889171
0.007142869568867353
0.007273946061193485
0.007385507415071742
0.007480765139506653
0.007563374284087585
0.007637421588769703
0.007707442641346673
0.0077784690385888046
0.00785610539010596
0.007946634577796596
0.008057145392372431
0.008195641909917556
0.008370666023024628
0.008583760564939579
0.008719040294655036
0.00016894453513079742
0.0002179392308453947
0.00032637450908880046
0.0004694244726710529
0.0006447802615466628
0.0008517579305931057
0.0010896843234235796
0.0013576322798786726
0.0016542409748552748
0.001977549469493636
0.0023248635484600672
0.0026926773702607627
0.0030766664296326637
0.00347176116209935
0.0038723009411940836
0.004272257780237669
0.004665509163457289
0.005046132422745846
0.005408690166193855
0.005748478318424246
0.006061714882972266
0.006345656927672237
0.006598643724203346
0.0068200733029326974
0.007010326641659705
0.007170657423635936
0.0073030661394769564
0.007410175650285778
0.00749512226840899
0.007561472769636604
0.00761317420643001
0.007654540320003532
0.007690276293263677
0.0077255420632159275
0.0077660539036329595
0.007818223872405392
0.007889333802541828
0.007987709001194927
0.008122454361987327
0.00829688939288593
0.008411209254250514
0.00012575001664242856
0.00017334998023340407
0.0002810784940729199
0.0004260404863565208
0.0006059076178221855
0.0008199895976061148
0.001067724665288972
0.0013483584750266994
0.0016606741704531616
0.0020027423504808193
0.0023717188959438604
0.0027637183586711246
0.0031737866546410753
0.0035959871295583546
0.004023600739407437
0.004449425198638885
0.004866142863509746
0.005266716059855684
0.0056447645090067725
0.005994883317969844
0.0063128709930322675
0.006595852184205957
0.006842296014861326
0.007051944495281508
0.007225674725375954
0.007365322473262705
0.007473494067350681
0.007553389662220463
0.007608655158294031
0.007643274409649206
0.007661507938680944
0.007667880586815119
0.007667217918028904
0.007664729968876471
0.007666141016709338
0.007677865023812596
0.007707229645019926
0.007762728652442949
0.007853945242484218
0.007986015231450433
0.008077116018210321
8.641451341267146e-05
0.00013154598432996644
0.00023677215504569986
0.0003819994800745503
0.0005649139403197245
0.0007848790194590086
0.001041599842445999
0.0013346730867818855
0.0016631906067104307
0.0020253773482688696
0.00241829178900273
0.0028376291136607257
0.003277661802192499
0.0037313412540145277
0.004190564227483717
0.00464658321590241
0.005090515420519982
0.005513887175413231
0.005909144042105074
0.006270064546620777
0.006592034153145861
0.00687216219114582
0.007109249600695986
0.007303635827928273
0.007456964588845737
0.007571911135766087
0.007651909286205873
0.0077009082381600535
0.007723179194056603
0.007723182812658501
0.0077055011986242984
0.007674833468632589
0.007636051243314003
0.007594309893164249
0.007555211838369113
0.007525020611169245
0.007510925348279008
0.007521364094168942
0.0075661590339731
0.007652461883884321
0.007718236654454792
5.305272545086386e-05
9.429200930667812e-05
0.00019461843074620484
0.0003378042477284508
0.0005215445700063041
0.0007454294874517498
0.0010096559370276266
0.001314411206370474
0.0016593279922429915
0.002042967490920266
0.0024623821330400156
0.0029128121311434137
0.0033875723676732553
0.003878169875923813
0.004374664377884768
0.004866243474244697
0.00534194423555085
0.0057914208697612095
0.006205649071766315
0.006577470576168064
0.006901917070390462
0.007176295670040858
0.00740006077451648
0.007574525388933753
0.007702479330351985
0.007787778934914898
0.00783496213297897
0.007848925384287041
0.007834683224368342
0.0077972170820797704
0.007741411266659977
0.007672068533897294
0.007593996677399434
0.007512157596882387
0.007431873401888791
0.007359085195381233
0.007300665398817765
0.00726475558514296
0.007261061406798971
0.00729829312180352
0.007336742706578866
2.803115311705879e-05
6.346952579174325e-05
0.00015584358698868473
0.0002938604318119225
0.00047536433975847
0.0007003968565184932
0.0009698990727575256
0.0012849720303642442
0.001646115256948945
0.0020525013136032623
0.0025013361082290406
0.0029873908390150375
0.003502794074340272
0.004037158292063372
0.004578071344339579
0.005111918868616767
0.005624931041783694
0.006104292267266942
0.0065391337711868695
0.006921257401603423
0.007245502869214911
0.0075097494977761576
0.00771461144497115
0.007862927205401727
0.0079591547347628
0.008008770646955456
0.008017744318700653
0.007992127891334164
0.007937776902675352
0.007860197801997856
0.00776450828085385
0.007655492627982497
0.007537735651691699
0.007415822602211278
0.007294597869227164
0.00717948051165592
0.00707683465521301
0.006994405260384534
0.006941538563796653
0.006928225813640037
0.006937429253331533
0.0004375793968196067
0.0006627883268443358
0.0012627203931504245
0.002555175060736416
0.0030817194104875404
0.004226878420563657
0.00481694169011678
0.005947720053258004
0.006455633254916234
0.007293801134984144
0.0076103442264497225
0.007856085966443641
0.008033526305205138
0.008147678892340457
0.00820517892197647
0.008213463607569747
0.007464586582011372
0.007306245065990811
0.006727118266790823
0.006629220067681783
0.006550226310791038
1.347424512371717e-05
4.36929892990244e-05
0.0001276514971389416
0.0002594211870628482
0.0009370592736074625
0.001641416939173421
0.002073109890713948
0.0036432583947701744
0.0053962821280539456
0.0069073014801896565
0.00818010852884617
0.008112354465768242
0.008016823222909725
0.007899399274023958
0.007765245691395658
0.00761892305883047
0.007148074753084274
0.006994789747929619
0.0068520808162190186
0.006568976137704781
8.256790987141373e-06
3.2470010653100024e-05
0.00010699837797867278
0.00023079987412913806
0.00040240543577663634
0.0006229722844208087
0.0008952862438757883
0.0012226821312777073
0.001607844892953432
0.0020516170563229393
0.0025518769992016305
0.0031026457203377146
0.003693609979804878
0.004310242273552517
0.004934617078305955
0.005546877231179596
0.006127132774362016
0.006657440638620048
0.007123480119229084
0.007515623085924384
0.007829268344394825
0.008064492280509334
0.008225203705401618
0.00831804510511621
0.008351266229620517
0.00833373378534263
0.008274167854085775
0.008180630670777683
0.008060249770272629
0.007919134537287797
0.007762439356796102
0.007594531862816133
0.007419234925548433
0.007240123605121926
0.007060870244003447
0.0068856399813608015
0.006719552896907201
0.006569212288515844
0.0064433556275010845
0.00635289906900262
0.006316807093089179
6.927372592005648e-06
2.5512797423557737e-05
9.108881468766693e-05
0.00020711747665771882
0.00037227686477837114
0.0005881711888955828
0.0008584642065248916
0.0011875909109166905
0.0015793942513165676
0.0020357101939890436
0.002555000777648473
0.003131212744883372
0.0037531113633447826
0.004404341424978425
0.005064373850184542
0.005710302743134717
0.0063192170795018055
0.006870676930096824
0.007348773230028311
0.0077433736778827625
0.008050401523600833
0.008271250581560011
0.008411614068865737
0.008480060245633313
0.008486643498584691
0.008441742923185613
0.008355216993598404
0.00823588127828969
0.008091266149566144
0.007927590929102665
0.0077498905530562325
0.0075622425820622
0.007368058357565318
0.007170418195284907