# vtk DataFile Version 2.0
time_10.vtk
ASCII
DATASET UNSTRUCTURED_GRID
POINTS   4141  float 
1.9069153499330203e-05        -2.2784493096758125e-17       0.0                           
0.24999999999999994           1.8032950234846432e-05        0.0                           
0.5000174577423314            -1.0886155758853843e-15       0.0                           
0.75                          1.6174574526032944e-05        0.0                           
1.0000154604524614            1.3826528788500975e-17        0.0                           
1.25                          1.3875436863467424e-05        0.0                           
1.500013001464387             2.1990188584215289e-16        0.0                           
1.75                          1.1087012350341897e-05        0.0                           
2.0000100467351563            1.7759220674586033e-17        0.0                           
2.25                          7.80454040235041e-06          0.0                           
2.500006605971208             2.2892570138188262e-17        0.0                           
2.75                          4.066853317368649e-06         0.0                           
3.0000027348190006            -2.0959812030577123e-18       0.0                           
3.249999999999999             -2.22003840567167e-18         0.0                           
3.499998468978947             -8.939766320882036e-19        0.0                           
3.75                          -4.6232607605099784e-06       0.0                           
3.9999937978678903            -6.95771874376276e-17         0.0                           
4.25                          -9.430171288724826e-06        0.0                           
4.499988922849175             -2.1719257514359142e-17       0.0                           
4.75                          -1.4431656810815732e-05       0.0                           
4.999983862102704             -3.092222261660233e-17        0.0                           
5.25                          -1.960824684634391e-05        0.0                           
5.499978626276669             5.128704645251829e-17         0.0                           
5.75                          -2.4972450862680656e-05       0.0                           
5.999973189919142             1.3055700288888192e-16        0.0                           
6.25                          -3.0576430703654924e-05       0.0                           
6.499967487710746             3.142961672742072e-16         0.0                           
6.75                          1.9016945674960732e-05        0.0                           
7.000018517240212             1.4444576307428283e-06        0.0                           
7.250001541562775             1.740743738000724e-05         0.0                           
7.500016789492486             1.7537855339308422e-06        0.0                           
7.750001867698155             1.5410888142380786e-05        0.0                           
8.000014645004168             2.107586089738865e-06         0.0                           
8.250002232019952             1.2950975247114471e-05        0.0                           
8.500012020837318             2.485912349880018e-06         0.0                           
8.750002613811558             9.993432289596525e-06         0.0                           
9.000008897394864             2.8678203864124186e-06        0.0                           
9.25000299256742              6.547412109901983e-06         0.0                           
9.500005297516362             3.234441749350167e-06         0.0                           
9.750003350389084             2.6601246385166045e-06        0.0                           
10.000001274558118            3.5697587972601103e-06        0.0                           
3.690761900334331e-06         0.29999836703661076           0.0                           
0.2499968507737593            0.30000390461513615           0.0                           
0.5000039986509499            0.29999372357690474           0.0                           
0.7499921209342351            0.30000417942001756           0.0                           
1.000004266519963             0.29998884730615855           0.0                           
1.2499871791443826            0.3000044359953721            0.0                           
1.5000045194352252            0.2999837846076176            0.0                           
1.7499820587901609            0.30000468689907006           0.0                           
2.000004772333974             0.2999785479251561            0.0                           
2.2499767605253242            0.30000495031976987           0.0                           
2.500005044371491             0.29997311208490207           0.0                           
2.749971245668476             0.3000052462173915            0.0                           
3.0000053553466746            0.2999674115688296            0.0                           
3.2499654359396875            0.30000559287447826           0.0                           
3.5000027038355004            0.30001836268941345           0.0                           
3.7500178295033915            0.3000030795317122            0.0                           
4.000003286561633             0.3000166397692803            0.0                           
4.250015975976638             0.30000373334192754           0.0                           
4.500003970339445             0.3000144959793631            0.0                           
4.750013675529036             0.30000446393807684           0.0                           
5.000004717359712             0.3000118672702996            0.0                           
5.250010878543507             0.3000052295508115            0.0                           
5.500005485299949             0.30000873355756374           0.0                           
5.750007579399656             0.3000059891923758            0.0                           
6.000006234925417             0.30000511579490824           0.0                           
6.250003810065547             0.30000670938753987           0.0                           
6.50000693760214              0.30000105739908856           0.0                           
6.749999618244772             0.30000738592531434           0.0                           
7.00000760105008              0.299996627844432             0.0                           
7.249995080721889             0.30000799678622014           0.0                           
7.500008181658812             0.29999189915164653           0.0                           
7.749990271054389             0.30000853506718056           0.0                           
8.000008705633439             0.2999869505554775            0.0                           
8.249985260761623             0.3000090399884913            0.0                           
8.500009206301302             0.29998182509867427           0.0                           
8.749980078970161             0.3000095441757764            0.0                           
9.000009718706481             0.2999765256138977            0.0                           
9.249974715008884             0.3000100865308058            0.0                           
9.500010282804377             0.2999710136204103            0.0                           
9.74996911643522              0.30001070704755595           0.0                           
10.000010937481699            0.2999652098271863            0.0                           
1.8598770208417505e-05        0.6000040453026929            0.0                           
0.25000431757162045           0.6000175749712663            0.0                           
0.5000170047108378            0.6000049219008446            0.0                           
0.7500052507687943            0.6000157276186516            0.0                           
1.0000150142632143            0.600005951901161             0.0                           
1.2500063196288551            0.6000134256637982            0.0                           
1.5000125472141268            0.6000070774363824            0.0                           
1.750007462692473             0.6000106182780275            0.0                           
2.000009567940124             0.6000082343102956            0.0                           
2.250008616393021             0.6000072995785095            0.0                           
2.500006084398471             0.6000093638414348            0.0                           
2.7500097263444134            0.6000035011361806            0.0                           
3.000002137226966             0.6000104255592591            0.0                           
3.250010762355048             0.5999992805735281            0.0                           
3.4999977951714794            0.6000114061054854            0.0                           
3.7500117091874965            0.5999947227988023            0.0                           
3.999993140799879             0.6000122778416515            0.0                           
4.250012546882518             0.599989899293564             0.0                           
4.499988244761937             0.600013063379206             0.0                           
4.750013314305965             0.599984876793958             0.0                           
4.999983165303702             0.6000138110323083            0.0                           
5.250014061011731             0.5999796883047128            0.0                           
5.499977921593277             0.6000145753490482            0.0                           
5.750014844314191             0.5999743246410802            0.0                           
5.999972489923368             0.6000154172878208            0.0                           
6.250015725675329             0.5999687328908642            0.0                           
[...]
POINT_DATA  4141
SCALARS Con float 1
LOOKUP_TABLE default
5.8669795102701096e-05
6.293574258881254e-05
7.13794431649948e-05
8.12317532472563e-05
9.234495741665843e-05
0.00010474746114456523
0.00011846061379437049
0.0001334840088318479
0.00014979327904314068
0.00016733966648063508
0.00018605057386998563
0.00020583099802776904
0.00022656569966255377
0.0002481218557717848
0.00027035177052249005
0.00029309489381210135
0.00031617882421394934
0.0003394179178480952
0.00036265746728072335
0.00038610448152517484
0.0004123392494970267
0.00043862368606829497
0.00046228894716023733
0.000484787464489482
0.00050725652069551
0.0005296294371461567
0.0005519387965282662
0.0005742455189020561
0.0005966522006247325
0.000619295532105242
0.0006423423058444366
0.0006659859831338231
0.0006904437741659769
0.0007159539542654099
0.000742773210404058
0.0007711738731556078
0.0008014405703919753
0.0008338613679696848
0.0008686484483653309
0.000904863042649792
0.0009257175910477055
5.955132409415556e-05
6.391592456011585e-05
7.252958936159857e-05
8.256484651207824e-05
9.387436507472161e-05
0.00010648305228996758
0.00012040876909563061
0.00013564742144618665
0.00015217093190277834
0.0001699269689904998
0.00018883969699956725
0.00020881147133318433
0.00022972541227114706
0.00025144878970745203
0.0002738372298091297
0.0002967403790986913
0.0003200106244684495
0.0003435311215794487
0.00036726151738235074
0.00039178056612156065
0.0004165548374811587
0.0004409020989526696
0.0004645322213795563
0.00048775523198022684
0.0005104802808388928
0.0005329693805351245
0.0005553181641995635
0.0005776327689911754
0.0006000371408036907
0.0006226809994459836
0.0006457399675277107
0.0006694142980684923
0.0006939269136420939
0.0007195211608573047
0.000746458386569918
0.0007750152711942538
0.0008054804941548891
0.0008381459663281172
0.0008732262409643021
0.0009097981455315283
0.0009308828493851669
5.90514599571173e-05
6.341461078775795e-05
7.204716448514033e-05
8.212666143463855e-05
9.350233187853789e-05
0.00010619775910190128
0.00012022898888396744
0.00013558997375117776
0.0001522506376396758
0.0001701567629050223
0.00018923097484006642
0.0002093748298947839
0.00023047209684699848
0.0002523934555732083
0.000275003276731532
0.0002981698580405272
0.00032178438126448427
0.0003457828602719064
0.0003702461149411223
0.0003945318613308199
0.0004177582131627831
0.0004409187165351363
0.00046475172607696153
0.0004882467356991879
0.0005112696836174744
0.0005338914325857283
0.0005562621406998453
0.0005785170482096748
0.0006008020963483107
0.0006232807600831633
0.0006461381159973338
0.0006695816096273266
0.0006938403693444159
0.0007191637252474284
0.0007458192475580404
0.0007740904094685998
0.0008042734663650003
0.0008366687737822411
0.0008715013678821196
0.0009078528244946581
0.0009288183536437129
5.8185577900353615e-05
6.255587516362575e-05
7.122387831046404e-05
8.137675532290915e-05
9.286262126056702e-05
0.00010570236424862
0.00011990898138225314
0.0001354730480017424
0.0001523609446805677
0.0001705149040642652
0.00018985419996323706
0.00021027750869731046
0.00023166653837820248
0.0002538910775971049
0.00027681557590038177
0.00030030731305908303
0.00032424121653709827
0.00034850027336937966
0.00037279458827314436
0.00039675659872752926
0.0004203518961505363
0.00044369920558739697
0.00046696805282373573
0.0004902189706186881
0.0005131530511591212
0.0005357175631963611
0.0005579780435902532
0.0005800562324174727
0.0006020990558636277
0.0006242763963906519
0.0006467807767985343
0.0006698273821821104
0.0006936534040590623
0.0007185168474165459
0.000744694888411229
0.000772481816895722
0.0008021861822397129
0.0008341223851289925
0.0008685312821615233
0.0009045204702510491
0.0009253094699483842
5.69613761679606e-05
6.13421670846507e-05
7.006245596339673e-05
8.032094806437222e-05
9.196373997221336e-05
0.00010500800950817183
0.00011946230866131972
0.0001353122725253412
0.00015251896471780093
0.0001710190265792482
0.00019072592815337226
0.00021153232058292577
0.0002333134536663932
0.00025593146951133686
0.00027923999264311845
0.00030308682617834
0.0003273117277773619
0.0003517146184534132
0.0003760688365694423
0.0004001850858439923
0.00042395629737778566
0.0004474222825903152
0.00047065116154160555
0.0004936213697566509
0.0005162949189404148
0.0005386128514030309
0.0005606028936327886
0.0005823569093938187
0.0006040110772908105
0.0006257338950140984
0.0006477217227263823
0.0006701964824303068
0.0006934041401072612
0.000717613241311098
0.0007431133453626622
0.0007702131525808783
0.000799237903262528
0.0008305212412320032
0.0008643268336587307
0.0008997980266888885
0.0009203316678727517
5.53678753198725e-05
5.976421063669456e-05
6.855551003274157e-05
7.895390484593477e-05
9.080256564342605e-05
0.00010411367825634188
0.00011888990716967569
0.00013511030391499639
0.00015272873738935396
0.0001716740567325948
0.0001918512741391983
0.00021314370988845434
0.00023541595899192935
0.0002585173149504904
0.00028228480850750937
0.0003065446722303839
0.0003311089072048088
0.00035577878112353067
0.0003803587972496085
0.00040468446825516727
0.0004286592562174131
0.0004522463435022292
0.00047544123093753505
0.0004982418231380668
0.0005206276980785511
0.0005425980980783518
0.0005641846824803705
0.0005854701890139333
0.0006065827945441414
0.0006276888727854096
0.000648987494765199
0.0006707070456387273
0.0006931029429466699
0.0007164558678220094
0.0007410701724872596
0.000767272191149677
0.0007954079198390318
0.0008258352795919141
0.0008588469737870242
0.000893632979203366
0.0009138273894688315
5.3393971520350755e-05
5.781191977832679e-05
6.669522225776262e-05
7.727030483977183e-05
8.937632582073315e-05
0.00010301913802297593
0.00011819404196521177
0.00013487187655479178
0.0001529974754346145
0.00017248976881436602
0.00019324282728868338
0.00021512777189715656
0.00023799541274239697
0.0002616793084956559
0.0002859988157747376
0.00031076161776673973
0.0003357676877858137
0.00036081635284063927
0.00038571965782898223
0.0004103205108272673
0.000434504410987347
0.00045820184898341036
0.0004813762702282888
0.0005040090615235933
0.0005260972609065381
0.0005476565206678341
0.0005687352277765596
0.000589420578545704
0.0006098414872536174
0.0006301659499605466
0.0006505975120569605
0.0006713721870047402
0.0006927561251657474
0.0007150438333129202
0.0007385567170327877
0.0007636416730911483
0.0007906691849923973
0.000820026131909503
0.0008520403158120771
0.000885959586593314
0.0009057222194507863
5.1029762913320424e-05
5.5476439357275315e-05
6.44748978996854e-05
7.526594483416455e-05
8.768343377193575e-05
0.00010172548378430287
0.00011737859832599583
0.00013460388400285742
0.00015333545924836898
0.00017348043457262542
0.00019491978042082708
0.00021751007024975482
0.00024108602536440491
0.00026546374573036376
0.0002904445019198718
0.0003158194264946702
0.0003413756595698787
0.00036690503379428334
0.0003922151925523709
0.000417140876745956
0.0004415524765898557
0.0004653579640326277
0.0004884994851762997
0.0005109483906284329
0.000532702137658251
0.0005537868560109355
0.0005742613285390834
0.0005942217397235063
0.0006138033757833476
0.0006331803077988885
0.0006525635148315298
0.0006721987515132765
0.0006923646880624706
0.0007133714831041644
0.0007355597163221829
0.0007592994740838755
0.0007849890500416173
0.0008130485454485495
0.0008438465944767269
0.0008767005956635682
0.0008959287215775756
4.8268964129961556e-05
5.2752203808748164e-05
6.189063518732496e-05
7.293894625065185e-05
8.572420538168846e-05
0.00010023538808691728
0.00011644888467091967
0.00013431475289638032
0.00015375497886706207
0.00017466323609353348
0.00019690554540063547
0.00022032188924759255
0.00024472883114229913
0.0002699231483725567
0.0002956865542348677
0.00032179163936195746
0.0003480092916167871
0.0003741175703743359
0.0003999114340292461
0.0004252119756991784
0.0004498732511718757
0.0004737856937253829
0.0004968762668163837
0.0005191070088406374
0.0005404741664039879
0.0005610085590616305
0.0005807774395239501
0.0005998861700664677
0.0006184792617269217
0.0006367401310410853
0.000654890058807441
0.0006731868329416648
0.0006919235462821857
0.0007114277584612591
0.0007320610682576145
0.0007542189344867915
0.0007783302401192936
0.0008048519886532417
0.0008341989011706206
0.0008657699326747479
0.0008843490492266392
4.511176181014881e-05
4.9639494014018864e-05
5.894326606773199e-05
7.029104188251804e-05
8.350148327142544e-05
9.855306908523924e-05
0.00011541097342069718
0.00013401320725620405
0.00015426854921511297
0.00017605593706233565
0.0001992248155881162
0.00022359659629648116
0.00024896738225047677
0.00027511205437848695
0.0003017897792827038
0.00032875093817956756
0.00035574536587022586
0.00038253154415053857
0.0004088860324494099
0.0004346120957031414
0.00045954650945608655
0.0004835638843465704
0.0005065786396523566
0.0005285454207789243
0.0005494588957395885
0.0005693537161501719
0.0005883047049813617
0.0006064270614718515
0.0006238762384749327
0.0006408473717803599
0.0006575743913629508
0.0006743291435066586
0.0006914207882309475
0.0007091956830197221
0.0007280377852542988
0.0007483694615062366
0.0007706522079279858
0.0007953828096848121
0.000823026596931423
0.0008530762491612595
0.0008708788363977089
4.1568265220360274e-05
4.614743991888035e-05
5.5640552469118247e-05
6.73289001516272e-05
8.102107611405542e-05
9.668386831005311e-05
0.00011427049278713983
0.00013370636833342795
0.00015488644548377795
0.00017767398451934096
0.00020190039467864616
0.0002273664241217669
0.00025384493785537954
0.0002810854390124157
0.000308820343774649
0.0003367728825582101
0.0003646662907505746
0.0003922337421906564
0.0004192282490975254
0.00044543166241437957
0.00047066197262604317
0.0004947784536498988
0.0005176846448320906
0.0005393295567006279
0.0005597077136951532
0.0005788585524000043
0.0005968655522229717
0.0006138551648659812
0.000629995679039502
0.0006454960291770261
0.0006606047672263321
0.0006756094044255198
0.0006908363399474607
0.0007066515209337348
0.0007234618505036418
0.0007417172417320337
0.0007619128105596238
0.0007845869140388815
0.0008102589868534533
0.0008385275198086164
0.0008554122643592372
3.7662509911399386e-05
4.229746766962952e-05
5.199956521548234e-05
6.406537910030943e-05
7.829188478996335e-05
9.46333124834957e-05
0.00011303072900401421
0.00013339706867408933
0.00015561344970415388
0.00017952695426883518
0.00020494965748752648
0.0002316593349101134
0.0002594022002504959
0.00028789787510641963
0.00031684655599362996
0.000345938128719366
0.0003748627110441141
0.0004033219001863101
0.0004310398348295683
0.0004577732000972086
0.00048331939750453006
0.0005075224482030292
0.0005302765097643749
0.0005515272826760875
0.0005712717544742953
0.0005895568116081987
0.0006064772087153148
0.0006221732632887048
0.0006368286000343743
0.0006506682050553849
0.0006639570488602342
0.0006769995104438508
0.0006901397895856779
0.0007037634076419446
0.0007182998095292931
0.0007342259226315218
0.0007520701805314717
0.0007724129104568165
0.0007958297711511441
0.0008220367181591949
0.0008378484012048715
3.343696920796544e-05
3.8127076983433296e-05
4.804912825475665e-05
6.052055790529135e-05
7.532555048785327e-05
9.240546079125556e-05
0.00011168984666479727
0.0001330801915608453
0.00015644462107546357
0.0001816141341293204
0.0002083803690951778
0.00023649552122644493
0.0002656749218155045
0.0002956025311794391
0.0003259392902104942
0.00035633391974619025
0.00038643544991935294
0.00041590650983055387
0.00044443629215795043
0.0004717521441721398
0.0004976289191598494
0.0005218955976870938
0.0005444389982791716
0.0005652048521812006
0.0005841966884290379
0.0006014731870622754
0.000617144656149206
0.0006313691979639331
0.000644349166470632
0.0006563282466158416
0.0006675896003474008
0.0006784552797991523
0.0006892871250802488
0.0007004892245511702
0.0007125119099880146
0.0007258571348871743
0.000741084738996956
0.000758815680859922
0.0007796822230815227
0.0008035285916485701
0.0008180988240960365
2.895731867016366e-05
3.369373138757975e-05
4.383208003073214e-05
5.6722323249289515e-05
7.213540021940044e-05
9.0000350524056e-05
0.00011023703715070467
0.00013273782381387965
0.00015735986213561082
0.00018391899488253165
0.00021218560192840023
0.00024188329217631724
0.00027269117595356566
0.0003042500605444371
0.0003361724556067127
0.0003680558143821807
0.0003994979665995567
0.0004301134359643017
0.0004595491954574098
0.00048749849596331577
0.0005137117356883876
0.0005380037150566667
0.0005602571658326449
0.0005804228434494488
0.0005985168593897411
0.0006146160778087927
0.0006288525040232895
0.0006414074996675138
0.0006525065608619561
0.0006624152468177356
0.0006714366824738855
0.0006799109461615498
0.0006882165069286028
0.0006967737929484986
0.0007060508441359041
0.0007165708937088467
0.0007289213202654692
0.0007437603337279677
0.0007617750676814196
0.0007829474934963985
0.0007960965659096657
2.4317025644875073e-05
2.907843650240504e-05
3.940701876136648e-05
5.27062218152974e-05
6.873450677496182e-05
8.741037733102089e-05
0.00010864743483485874
0.0001323330557439181
0.00015831709974416813
0.00018640237932044602
0.0002163376083950286
0.00024781426688948925
0.00028046837965926526
0.0003138876970452849
0.0003476241237462638
0.0003812104873096297
0.0004141802325210411
0.0004460881303560903
0.00047652999203381556
0.0005051595743331382
0.0005317012779696678
0.0005559578939401787
0.0005778133390519068
0.0005972309119583025
0.0006142480389472215
0.0006289687770989541
0.0006415552578454587
0.0006522193172652429
0.0006612151732724074
0.0006688339399216059
0.0006754004119842043
0.0006812724485126773
0.0006868430793897662
0.0006925453875535035
0.0006988601213388586
0.0007063258869879793
0.0007155514459424209
0.0007272264581627252
0.0007420889131013741
0.0007602661050495822
0.0007718061347227443
1.964099566007916e-05
2.4388339478333937e-05
3.4848990363367137e-05
4.851433231136647e-05
6.513277342304647e-05
8.46156498257918e-05
0.00010687584839924415
0.00013180239769112882
0.00015924402619651762
0.00018899436573197552
0.00022078068233221366
0.0002542580499905276
0.0002890104041334732
0.0003245591630869413
0.00036037915030385435
0.0003959205910482553
0.000430635003198591
0.00046400225837794744
0.0004955559092604418
0.0005249042011200162
0.0005517449337224925
0.0005758733133814573
0.000597182916409225
0.0006156607625744561
0.0006313780724048208
0.0006444784569988591
0.0006551653730665319
0.0006636903284827578
0.0006703429991287786
0.0006754441140873958
0.0006793415386532663
0.0006824097983758516
0.000685053100988587
0.000687711791407665
0.0006908722144133256
0.0006950799101311991
0.0007009558872889701
0.0007092129082672541
0.0007206330268168922
0.0007354947837790887
0.0007452345974603483
1.5086930018392067e-05
1.9757257142465494e-05
3.0248615877851257e-05
4.419296471402979e-05
6.133336194563174e-05
8.157863863624183e-05
0.00010484936866750929
0.00013104692464881753
0.0001600285599791167
0.0001915850266253022
0.00022542327491540195
0.00026115676008143526
0.0002983053909338183
0.00033630618798258336
0.0003745343470128299
0.00041233289051828244
0.00044904770208389417
0.0004840638236675502
0.0005168387017443496
0.0005469286925232566
0.0005740063051766307
0.0005978673118347206
0.0006184283103003025
0.0006357165461161548
0.0006498545375321071
0.0006610421549915224
0.0006695386121507698
0.000675646383938551
0.0006796983087484979
0.0006820488061586513
0.0006830694518827213
0.000683149018779986
0.0006826978066151773
0.0006821560851936542
0.0006820064926705961
0.0006827903687350253
0.0006851282806177945
0.0006897429380626446
0.0006974529528602897
0.0007086909163142651
0.0007164420518790662
1.0843486588073287e-05
1.5342954204667876e-05
2.5708617653801455e-05
3.979043423220288e-05
5.732944730987969e-05
7.823802608933273e-05
0.00010245915210736834
0.00012992271503145834
0.00016050873340480755
0.00019401475926200678
0.00023013004509264798
0.0002684201658103111
0.000308325141673547
0.00034917287439077595
0.000390207682653991
0.00043063131289505996
0.0004696515557254028
0.0005065321094049348
0.0005406371249213849
0.0005714649474266461
0.0005986676932366567
0.0006220559229049768
0.0006415900034606316
0.0006573614656990333
0.0006695684114509878
0.0006784889850326677
0.0006844562409264668
0.0006878368259788421
0.0006890149029265866
0.0006883819258746688
0.0006863322994487374
0.0006832645992850932
0.0006795879087714394
0.000675732823222108
0.000672166824002159
0.0006694139139952774
0.0006680785552320307
0.0006688745502460134
0.0006726368221933422
0.0006799686853594147
0.0006855557688181348
7.118317783164198e-06
1.1318381934222343e-05
2.1343100478514305e-05
3.5356718827088515e-05
5.309833541321148e-05
7.450134593451555e-05
9.955260323382412e-05
0.00012823238874667237
0.00016046375468721302
0.0001960656757156546
0.00023471503718266694
0.0002759225063345624
0.0003190273472289486
0.0003632143908487102
0.000407553398319314
0.0004510570440743814
0.0004927500135265776
0.0005317391002335423
0.0005672740278784359
0.0005987906369175881
0.0006259320134298611
0.0006485474604913219
0.000666672950398748
0.000680498963572274
0.0006903322979610353
0.0006965577064073578
0.0006996037857781629
0.0006999158163084973
0.0006979367620227812
0.0006940965022626482
0.0006888086565225188
0.0006824741246848052
0.0006754904295750736
0.0006682661261635346
0.0006612398264044668
0.0006549035698009682
0.0006498307207792632
0.0006467059741888318
0.0006463511873666298
0.0006495018612863338
0.000652758290625749
4.1533750850808595e-06
7.875607080822058e-06
1.7275820838447096e-05
3.093288691551359e-05
4.8598165304829556e-05
7.024909287799997e-05
9.594038802971748e-05
0.00012573255179902125
0.00015962047368573085
0.00019746721642948897
0.00023894783829848736
0.0002835114941878689
0.00033036987441340416
0.00037851821826010655
0.0004267901711518148
0.0004739414863756137
0.0005187504594203219
0.0005601189137177744
0.0005971567075996894
0.0006292370677885298
0.0006560168905833082
0.0006774238375243783
0.0006936178676391629
0.0007049377946113156
0.0007118433116459005
0.0007148609471231469
0.0007145393412097789
0.0007114164023860232
0.0007059986865601821
0.0006987519063708499
0.0006901008289540271
0.0006804368211716013
0.0006701314972386528
0.0006595555129925529
0.0006491019090333254
0.0006392140956548982
0.0006304183975584507
0.0006233622432591072
0.0006188336829011455
0.0006176792900309827
0.0006184458244019573
4.492194049661014e-05
6.67273370024802e-05
0.0001239544266753139
0.00024465751470238554
0.0002930310200700994
0.0003967280581270477
0.0004493216965640879
0.0005483069502913916
0.0005918574238461205
0.0006620384086013294
0.0006877461727426666
0.0007071806502349015
0.000720690101321921
0.0007288158463595896
0.0007322100704649489
0.0007315649017623394
0.0006633245881765327
0.0006497179897743408
0.0006002914780267885
0.000591941914298115
0.0005851755662414939
2.2403074386272216e-06
5.53859873655091e-06
1.4260333462559958e-05
2.744528746759766e-05
9.301508429041917e-05
0.00015963615783985748
0.00019998052408908996
0.0003441401286157281
0.0005003535737737333
0.0006299849905942856
0.0007275584648615865
0.0007208192448566147
0.0007119072152952545
0.0007013087452571843
0.0006894422330268682
0.0006766714357857581
0.0006361837741835187
0.0006231021570248724
0.0006109394308301025
0.0005867894239302217
1.380701079987359e-06
4.154222547292886e-06
1.2055497988566127e-05
2.456123500951273e-05
4.149962222270391e-05
6.2958582264358e-05
8.91651744246366e-05
0.00012038059664288283
0.00015678644236730925
0.00019837429489852744
0.00024484554396735124
0.000295537236927557
0.0003493915987603069
0.0004049849268413091
0.00046062199894404297
0.0005144870616610938
0.0005648263075972857
0.0006101260061907748
0.0006492509112543664
0.0006815186802561289
0.0007067043983265873
0.000724985833741334
0.0007368508374269325
0.000742990408091342
0.0007441971992821675
0.0007412819119701216
0.000735013112991296
0.000726080431511872
0.0007150778869924261
0.0007025028660975857
0.0006887661952315587
0.0006742098965783582
0.0006591299417048925
0.0006438029090287301
0.0006285160850329622
0.0006136015951107397
0.0005994760990897509
0.0005866862965061467
0.0005759655929880143