# vtk DataFile Version 2.0
time_10.vtk
ASCII
DATASET UNSTRUCTURED_GRID
POINTS   4141  float 
4.9858210429202806e-05        3.0408586906198853e-18        0.0                           
0.24999999999999897           4.723335383201667e-05         0.0                           
0.5000457645804464            -6.496866204404511e-17        0.0                           
0.75                          4.2465516910664846e-05        0.0                           
1.0000406190088569            1.5950948118332502e-17        0.0                           
1.2499999999999991            3.650128278577162e-05         0.0                           
1.50003422197735              1.5115844355867987e-17        0.0                           
1.75                          2.921312702476724e-05         0.0                           
2.000026484155696             6.150302915492707e-17         0.0                           
2.25                          2.0589063601518582e-05        0.0                           
2.500017431921011             1.3592583422104498e-17        0.0                           
2.75                          1.0733613009934288e-05        0.0                           
3.0000072160973503            -4.5019939885676997e-17       0.0                           
3.25                          -7.154543200135229e-17        0.0                           
3.4999959206519606            -3.0139403067338066e-16       0.0                           
3.75                          -1.2307695968253706e-05       0.0                           
3.9999834896712154            2.6933600397023486e-16        0.0                           
4.25                          -2.5110489788067907e-05       0.0                           
4.49997049715796              -3.424035265281413e-17        0.0                           
4.75                          -3.845862645475239e-05        0.0                           
4.999956981148254             1.3315154871929465e-16        0.0                           
5.25                          -5.2304091242184794e-05       0.0                           
5.499942967128797             2.836137436103173e-16         0.0                           
5.75                          -6.66820701994479e-05         0.0                           
5.999928385802248             1.0187624326025113e-16        0.0                           
6.25                          -8.173226287426459e-05        0.0                           
6.499913062850392             -1.3533914451219339e-15       0.0                           
6.75                          4.971407193450874e-05         0.0                           
7.000048452078098             3.6583751150315474e-06        0.0                           
7.250003925200901             4.562545957529695e-05         0.0                           
7.500044040162678             4.506285539708051e-06         0.0                           
7.750004817358607             4.0481818679829706e-05        0.0                           
8.00003849502576              5.471228026925685e-06         0.0                           
8.250005809964383             3.4082280872471125e-05        0.0                           
8.500031651098942             6.500633147146101e-06         0.0                           
8.750006848463514             2.6336854446190562e-05        0.0                           
9.00002345707027              7.5393848916356945e-06        0.0                           
9.250007878876945             1.727017220724588e-05         0.0                           
9.500013973852411             8.537654424500064e-06         0.0                           
9.75000885374234              7.007863737336876e-06         0.0                           
10.000003342193267            9.452434506565826e-06         0.0                           
9.787158268014779e-06         0.29999563308370014           0.0                           
0.24999160461173395           0.30001037714705436           0.0                           
0.5000106356877212            0.29998328519566186           0.0                           
0.7499790171742354            0.3000111343688458            0.0                           
1.0000113753878632            0.29997028990116165           0.0                           
1.2499658379153267            0.3000118454968163            0.0                           
1.5000120773740948            0.2999567686849955            0.0                           
1.7499521527682982            0.3000125431510278            0.0                           
2.0000127807718853            0.29994275233945716           0.0                           
2.249937961466779             0.3000132752514154            0.0                           
2.500013536053512             0.2999281724046814            0.0                           
2.749923159882497             0.3000140942710982            0.0                           
3.0000143951671077            0.299912854016894             0.0                           
3.249907539619671             0.30001504801588386           0.0                           
3.50000680715384              0.30004802513130324           0.0                           
3.7500466710023925            0.3000078409487941            0.0                           
4.000008408377311             0.3000436259267237            0.0                           
4.250041915899904             0.3000096293645307            0.0                           
4.500010275656989             0.3000380825376478            0.0                           
4.750035948028873             0.3000116197868388            0.0                           
5.000012309258386             0.30003122636907936           0.0                           
5.250028636799427             0.30001370225126067           0.0                           
5.500014397831992             0.3000230045456573            0.0                           
5.750019967379818             0.3000157689775235            0.0                           
6.000016438199849             0.30001347198965544           0.0                           
6.250010023315391             0.30001773201945064           0.0                           
6.500018355609503             0.300002739461432             0.0                           
6.749998925417087             0.30001958634075937           0.0                           
7.000020178824297             0.2999909886836366            0.0                           
7.249986876277033             0.30002126886590885           0.0                           
7.500021778814446             0.29997840800652686           0.0                           
7.749974069448203             0.3000227562024461            0.0                           
8.000023229110344             0.2999652110170707            0.0                           
8.249960697998073             0.30002415791974935           0.0                           
8.500024620494454             0.29995151210909143           0.0                           
8.749946838444933             0.30002556042334405           0.0                           
9.000026045612518             0.2999373174566814            0.0                           
9.249932461070909             0.3000270663839428            0.0                           
9.500027609784508             0.29992252360388966           0.0                           
9.749917425478088             0.3000287808360485            0.0                           
10.000029414904827            0.2999069192795646            0.0                           
4.8559593135603764e-05        0.6000101831497224            0.0                           
0.2500109334711976            0.6000459674579244            0.0                           
0.5000445117148763            0.6000125916548326            0.0                           
0.7500134910632525            0.600041228580932             0.0                           
1.0000393840091333            0.6000154040748406            0.0                           
1.2500164057218675            0.6000352565389523            0.0                           
1.5000329651886763            0.6000184678007103            0.0                           
1.7500195155546394            0.6000279173585225            0.0                           
2.000025161228526             0.6000216140286433            0.0                           
2.2500226535187213            0.6000191950404674            0.0                           
2.5000159923486094            0.6000246887489796            0.0                           
2.750025677076849             0.6000091711413249            0.0                           
3.0000055632772193            0.6000275873108369            0.0                           
3.2500285100176183            0.5999979948916838            0.0                           
3.499994054170598             0.600030278693047             0.0                           
3.7500311131549564            0.5999858920851614            0.0                           
3.9999816835809425            0.6000326816872508            0.0                           
4.250033425478821             0.5999730493916713            0.0                           
4.499968637097382             0.6000348568227284            0.0                           
4.750035553680555             0.5999596452217545            0.0                           
4.999955070789188             0.6000369350629062            0.0                           
5.250037630663501             0.5999457674368034            0.0                           
5.499941035248157             0.600039061159769             0.0                           
5.750039808211008             0.5999313907692437            0.0                           
5.999926466509085             0.6000413960345419            0.0                           
6.250042248278744             0.5999163736477107            0.0                           
[...]
POINT_DATA  4141
SCALARS Con float 1
LOOKUP_TABLE default
0.00037406553994014823
0.0004039390724750765
0.000462894517553921
0.0005318305165889677
0.0006097672260396999
0.0006969375312827342
0.0007935211016435184
0.0008995422139429735
0.0010148541056703559
0.001139135727856635
0.001271895417464113
0.0014124806840067152
0.0015600930266331536
0.0017138058455837884
0.0018725822646803029
0.0020352872205474004
0.002200691302048814
0.002367460447787907
0.0025344880946905576
0.002703614141992047
0.002895062412058645
0.0030872939721815385
0.0032592574744449024
0.00342287024963204
0.0035867503767412247
0.0037503804579146352
0.003913960600436119
0.00407789329265601
0.004242884092407408
0.004409884681225399
0.004580062825919611
0.004754776561303247
0.0049355524376713
0.005124065304466038
0.0053221183670221954
0.005531622391850284
0.0057545709010168615
0.005992977137541013
0.006248312113288388
0.006513765128136195
0.006666687490539195
0.0003799260717456332
0.0004105013009389547
0.0004706517752197627
0.0005408802659056007
0.0006202094461520926
0.0007088478447093603
0.0008069505783388274
0.0009145158902181491
0.0010313707729187075
0.001157168919180585
0.001291395865108803
0.0014333807699247274
0.0015823143542449212
0.0017372725550359675
0.0018972461761717775
0.0020611817049759422
0.0022280469746416495
0.0023970451459864907
0.0025679942937618075
0.002745366398759345
0.002925236873819577
0.0031023755813686924
0.003274502071541565
0.0034438003614645127
0.003609769791464465
0.0037743913857706136
0.0039383612099327045
0.004102430427968072
0.00426746887913527
0.004434527509562446
0.004604840700031537
0.004779817388788092
0.004961026671726092
0.005150181112197066
0.0053491185366222205
0.005559782001877317
0.005784195134556408
0.006024399675234183
0.006281883601630774
0.006549945408300674
0.006704549525046361
0.00037660035410702554
0.00040715468491100883
0.00046741916213296087
0.000537936298306782
0.0006177071054044905
0.0007069321378859356
0.0008057550712594173
0.0009141617226424955
0.0010319664047501948
0.0011588110679860845
0.0012941722468129762
0.0014373758862451984
0.0015876207877582762
0.001744012546132552
0.0019056132645156635
0.0020715181286836883
0.002240998915967923
0.0024136742000273412
0.0025902426607717064
0.0027659064310692504
0.002933682208728324
0.003101385260163935
0.0032749960322474648
0.0034465697869495862
0.0036149588512326396
0.003780720492943414
0.003944971678582048
0.004108693980609049
0.004272929466940148
0.0044388365366766856
0.004607722966135836
0.004781053150612866
0.004960443765106228
0.005147652989308519
0.0053445659258995835
0.0055531769452918
0.005775566625075932
0.006013839479191053
0.006269558738421851
0.0065360471665612254
0.006689789460852413
0.00037083054373704546
0.0004014181233335812
0.00046189757823665546
0.0005328912886147878
0.0006133952554877732
0.0007035933742493971
0.0008036100006174572
0.0009134093118821406
0.0010327828446609635
0.0011613498420784993
0.0012985657408093156
0.001443739076268112
0.001596057599396896
0.0017546248649709904
0.0019185082909858354
0.0020867990235938876
0.002258645783511446
0.0024332472289317676
0.0026084694865562653
0.002781490319906907
0.0029521139937158
0.0031213397124446023
0.0032905468670802068
0.0034602389118830535
0.003628049145315015
0.0037935058391583717
0.003957064516400207
0.004119595948860159
0.004282147652732798
0.00444592613983142
0.00461229559907329
0.004782779057578163
0.004959054210986947
0.005142944758779865
0.005336408103812372
0.005541519708668159
0.005760451575729357
0.005995411374746863
0.0062480763533830615
0.006511952482134069
0.006664420851457117
0.00036267576915507445
0.0003933120945482149
0.0004541096366798078
0.0005257890235093499
0.0006073362330538248
0.0006989121515511744
0.0008006127955345964
0.0009123704332216647
0.0010339419963006438
0.0011649101343257486
0.001304692127991191
0.0014525566196443914
0.0016076479675287585
0.001769016775076179
0.0019356521023443166
0.0021064984463754857
0.002280432858671372
0.002456016617915493
0.002631579859282686
0.002805737945148481
0.0029777248175430877
0.0031479106345505777
0.0033168737825483036
0.003484464470762656
0.003650371057159378
0.0038140868219383225
0.003975758453051449
0.0041360174753131305
0.004295822079188622
0.004456363976264807
0.0046190339360494765
0.004785404597240621
0.0049572191347211315
0.005136380334462504
0.005324938452416412
0.005525076640924721
0.0057390908316539485
0.005969330317867464
0.006217638349174215
0.006477782072971274
0.006628418638662028
0.0003520659153480733
0.0003827780121171169
0.0004440083255949433
0.0005165952146791937
0.000599509454753438
0.0006928807606713842
0.0007967674338798179
0.000911058980503109
0.0010354650991816479
0.0011695167609723288
0.0013125744738468686
0.001463843276308925
0.0016223933764007098
0.0017871836375630411
0.0019570813891275243
0.002130869252366021
0.00230721413234812
0.0024846880113874818
0.0026618767068337054
0.002837590073421582
0.0030111514265467377
0.0031823297042292446
0.0033511254949186472
0.0035175355288433836
0.0036813860689764418
0.0038426274478081442
0.004001437185728527
0.004158369535200867
0.004314314491746163
0.004470441859371589
0.004628158941095338
0.004789084668607083
0.004955032072711407
0.00512799456317018
0.0053101332009251444
0.00550376300987777
0.005711334506322049
0.005935376864876434
0.006177947830206457
0.0064331534070416994
0.006581351047543566
0.0003389323820567315
0.0003697533628725322
0.0004315450920387562
0.0005052766241599205
0.000589897244519507
0.0006854969334451326
0.0007920866968259552
0.000909502555953033
0.00103739466186012
0.0011752278226035244
0.0013222885463413903
0.0014776980414399302
0.0016404300707593947
0.0018093312874811408
0.0019831408304194376
0.0021605054174170927
0.0023400053034495108
0.0025202055490225624
0.002699755870428753
0.002877529425515539
0.003052710415703137
0.0032248113071253123
0.0033935779565568104
0.003558871804226479
0.003720650515174982
0.0038789901333628604
0.004034195984998886
0.004186853035317426
0.004337851342838611
0.004488367586176208
0.004639838606415608
0.004793937953064107
0.004952557829685683
0.005117794910263909
0.005291938198898491
0.005477456989900996
0.005676984960723332
0.005893267033339265
0.006128620384475968
0.006377569813790929
0.006522657586172614
0.0003232174122687571
0.00035418638563364154
0.0004166807460559245
0.0004918088028428886
0.0005784906513508444
0.0006767676189312702
0.0007865941889601354
0.0009077430323064735
0.0010397937204429594
0.0011821322058837712
0.0013339564112128939
0.001494287716310358
0.0016619878418812372
0.0018357802247030166
0.002014275111193712
0.002196001232205488
0.0023794489065407393
0.0025631330487683444
0.0027456757089164415
0.0029258900016966203
0.0031028436318479417
0.003275871853697506
0.0034445501672037354
0.0036086554286954204
0.003768141652727971
0.003923160177503348
0.004074091718748954
0.004221585532184602
0.004366575291859473
0.004510278843027282
0.004654185184509668
0.004800038558952933
0.004949823990863888
0.0051057555199197175
0.00527026659743577
0.005446001238966627
0.005635802066481135
0.005842662279723953
0.006069201314398872
0.006310448128264661
0.006451678822033211
0.0003048910575886101
0.0003360504806485733
0.00039939715073013395
0.00047618443240393
0.0005652943226542156
0.0006667105271812746
0.0007803226801762422
0.0009058318095981569
0.0010427378939941035
0.001190337635733899
0.001347728319445575
0.0015138181412470628
0.0016873433708755297
0.0018668925337972284
0.0020509383398973745
0.0022378787305590204
0.0024260893288152352
0.002613987470402007
0.0028001031863267483
0.002983147036101148
0.0031620600539079015
0.003336038446015418
0.003504534199338217
0.0036672440700806553
0.00382410375255096
0.003975292007618226
0.004121246800578254
0.004262680828346012
0.004400592071835847
0.004536264243277391
0.0046712604088913045
0.004807413226224016
0.004946815440446305
0.005091812386340791
0.005244996781134482
0.005409204854308813
0.005587510155574063
0.0057831827766537105
0.005999184415872965
0.006231136608115281
0.006367674426091175
0.00028397110467356354
0.00031536196900258396
0.0003797106216699385
0.00045842213253945136
0.0005503305976284056
0.0006553535531861936
0.0007733090585589904
0.0009038205674923099
0.0010463020999457392
0.001199953232558001
0.0013637605005484897
0.00153650635665739
0.0017167868324008395
0.0019030387773401741
0.002093577312169138
0.002286643877061051
0.0024804643293342057
0.002673314668406669
0.002863589183735271
0.0030498632358934336
0.003230943072165181
0.0034058978180475192
0.003574074657203939
0.003735103064406453
0.003888895061108205
0.004035647290169717
0.004175845073260412
0.0043102670437342675
0.004439986946436017
0.004566371719759939
0.004691076315236793
0.004816037587615841
0.004943469272855106
0.005075859614189586
0.005215972000108739
0.005366847884856598
0.0055318084926446074
0.005714423932307647
0.00591803333893658
0.0061389411012074515
0.006269851819646269
0.0002605468285557852
0.000292200759986578
0.00035768692018943937
0.0004385753427893254
0.0005336421877973397
0.0006427314092519828
0.0007655853429237602
0.00090174728807674
0.001050542374770625
0.001211068003176278
0.001382191380124265
0.0015625561934061788
0.001750600294391351
0.0019445856339957248
0.0021426408540859577
0.0023428158598634142
0.0025431462847521078
0.0027417240317633177
0.0029367683817843023
0.00312669132757784
0.003310151313627948
0.0034860920036147085
0.0036537659335941376
0.003812745819380601
0.003962927858773664
0.004104530634550655
0.004238092102522768
0.004364465136514839
0.004484811979722735
0.00460059776272007
0.004713584248269162
0.004825825272853377
0.004939665498021657
0.005057743503643934
0.005182999481494579
0.0053186867865253505
0.005468383876538143
0.0056359763849475825
0.005825208942479198
0.006033159005863447
0.006157403539711767
0.00023480631735181768
0.00026673373735521124
0.00033345728078132143
0.0004167405489293502
0.0005152925775819603
0.0006288785504228154
0.0007571648529274476
0.0008996167878849743
0.0010554722411299721
0.001223724856586201
0.0014031154613440865
0.0015921348382393673
0.0017890405436919918
0.00199188938675349
0.0021985857145521703
0.002406943985586098
0.0026147622929911193
0.002819901853204789
0.003020366299531827
0.0032143744060708222
0.003400420762243904
0.003577321003945884
0.0037442407104588014
0.003900709581222775
0.004046623877952276
0.004182240742737937
0.004308167548577286
0.004425348811240725
0.004535052722496714
0.0046388590635243
0.0047386502257680055
0.004836607057737483
0.004935210832962987
0.005037252208292366
0.005145847218832784
0.005264459414804824
0.0053969246491911765
0.005547449553253614
0.005720202526642786
0.005913121697406695
0.006029554544344019
0.00020706667211902453
0.0002392399886255326
0.00030723450067009786
0.0003930637494149226
0.0004953629803251114
0.0006138171752345204
0.000748022337094147
0.0008973745710295039
0.0010610323995229522
0.001237888746397287
0.0014265529272822655
0.001625347149386508
0.001832321317507225
0.002045288278293989
0.002261879475591187
0.00247961859667108
0.0026960085000738124
0.0029086248914775605
0.003115209200224447
0.0033137532165519274
0.0035025692850523767
0.0036803420937299887
0.003846160669518853
0.003999531794209888
0.004140377863200883
0.004269023308945739
0.004386173981550095
0.004492893540080396
0.00459058056973387
0.0046809493811398395
0.004766017130077465
0.00484809918522252
0.004929814198040755
0.005014099573974441
0.005104237254546893
0.0052038887125886975
0.005317135592762296
0.005448498361687419
0.005602574813826418
0.005778245499722513
0.005885619660754991
0.0001778052423650149
0.0002101361311359809
0.00027932738941973567
0.00036774361979087945
0.00047394444351729756
0.0005975390582091983
0.0007380668341301134
0.0008948726973145756
0.0010670523131983565
0.001253407320883945
0.0014524131138965932
0.001662205693226718
0.0018805930200279056
0.0021050937669855477
0.0023330032693878048
0.0025614831360691436
0.002787667911946697
0.0030087798916126566
0.0032222421474178793
0.0034257801788470667
0.0036175044565638706
0.0037959688892518057
0.003960203616996528
0.004109723619952346
0.004244517152891529
0.00436501949196717
0.004472078100287326
0.004566915128768919
0.004651092409346745
0.004726483317264393
0.004795254685588869
0.004859861244166698
0.0049230539680633996
0.004987903055930911
0.005057835354312188
0.005136685022818452
0.005228753487829414
0.005338852792186356
0.005472000201711026
0.0056280908627037085
0.005725071126334126
0.00014768849937726189
0.00017999863160898813
0.0002501510921076806
0.00034102945507190737
0.00045112389677211685
0.0005799803769448329
0.0007271065459920457
0.000891826843043884
0.0010732026927096573
0.001269963049525036
0.0014804509604766133
0.0017025960546695762
0.0019339205776785914
0.002171583005600265
0.0024124588734245555
0.0026532536543859113
0.0028906383073787423
0.003121394908820458
0.003342558539428169
0.0035515424180306687
0.003746236003070288
0.003925069890506276
0.004087045979832205
0.004231735632756449
0.004359251844307382
0.004470203470238449
0.004565640042401791
0.004646995433911086
0.004716037240354253
0.004774827403225855
0.004825697923689183
0.004871244194475877
0.004914337311943553
0.0049581559072687225
0.005006237336419853
0.005062547211655723
0.005131563585885072
0.005218349722444498
0.005328315377214111
0.005462428616168808
0.005547614910780238
0.00011759307746199011
0.00014957826004268802
0.00022022963316481136
0.00031321224002670754
0.0004269637871254638
0.0005609900373771752
0.0007148062072881297
0.0008877646157990452
0.0010789387900557855
0.0012870167961923603
0.0015102167761743982
0.0017462385469859507
0.001992261785657268
0.0022449965944285905
0.0025007859558054566
0.0027557527259916563
0.003005977435139837
0.0032476886360457884
0.003477445835584482
0.003692296598846541
0.003889893864097009
0.004068565865188461
0.004227337928057736
0.004365911456818935
0.0044846099018286695
0.004584303641986252
0.004666326144180334
0.0047323923944022905
0.004784528508668955
0.004825018959788961
0.0048563755647274024
0.004881330366578594
0.004902853347966915
0.004924194935018118
0.0049489530469441195
0.004981164399590358
0.005025417987763568
0.005086968549787143
0.005171570609940789
0.0052813110746445305
0.005353275087167909
8.860927458851077e-05
0.00011979910823723442
0.00019018716868179173
0.0002846078723330349
0.0004014779347161005
0.000540294271242756
0.0007006383083440523
0.0008819665662193459
0.0010834362312401233
0.0013037447719620508
0.0015410015329081353
0.001792649218331714
0.002055450342251003
0.0023255474562869386
0.002598597026173775
0.002869966528395475
0.003134974418831876
0.0033891457006833313
0.0036284533378301504
0.0038495187751628294
0.004049752228564395
0.0042274237514568005
0.004381666615613987
0.004512423379883821
0.0046203507470709195
0.004706701465844492
0.004773200754474483
0.004821931952211927
0.004855242078032572
0.004875674366051417
0.004885931230758177
0.004888868883753612
0.004887523146083013
0.0048851654174072905
0.004885387859693187
0.0048922175731219535
0.00491026158736105
0.004944869732127953
0.005002087322795206
0.005085143532514682
0.005142474422527178
6.202025780130483e-05
9.173377529856058e-05
0.00016072144573478644
0.00025554122806754144
0.00037461070309205977
0.0005174576207052274
0.0006838305736724289
0.000873404573915748
0.0010855248066906464
0.001318974101062479
0.0015717825992378432
0.0018411052656467188
0.002123189712392292
0.002413448856384673
0.0027066401548558757
0.0029971365966694596
0.0032792590809862057
0.003547628060840646
0.00379748910865164
0.004024972254826697
0.0042272582664196635
0.004402642033973511
0.004550499968316631
0.004671181168878115
0.004765849049210876
0.004836301332472325
0.004884792969958933
0.004913880719315164
0.004926301539301233
0.004924891039585192
0.004912543694643695
0.004892213651691833
0.0048669534849101045
0.004839988058767595
0.004814821150124939
0.00479537405538599
0.004786156058371074
0.004792471773962696
0.004820507262366896
0.004874758651144593
0.004916141062906829
3.921156685769308e-05
6.653799219953322e-05
0.0001325949473610577
0.00022634370917110858
0.0003462004248231206
0.0004918383198472381
0.0006633192970480436
0.0008606907977780524
0.00108363327645047
0.0013311280226441387
0.0016011788339136523
0.0018906228146070144
0.0021950663971634287
0.002508972138667205
0.0028259025973842566
0.003138901294362214
0.003440964132882386
0.003725534963227701
0.0039869535871397315
0.004220794747467833
0.00442406051228151
0.004595217573805559
0.004734098107099077
0.004841700895337605
0.004919937204876078
0.004971363508501973
0.0049989346945707915
0.00500580035092233
0.004995155836688376
0.00497015137723954
0.004933856738201789
0.004889276103118926
0.004839407337202643
0.004787340132470883
0.0047363896757307376
0.004690263291411284
0.004653260858491221
0.004630491280498899
0.004628060113697142
0.004651443968404831
0.00467562924964892
2.175260409482162e-05
4.545910611142399e-05
0.00010661828815651738
0.00019728362021022405
0.00031596408698590645
0.0004626268797874599
0.0006378112543373759
0.0008421451603250953
0.0010758518394374337
0.0013382829594702625
0.0016275107542401176
0.0019400351463629163
0.0022706630424380167
0.0026126067020026673
0.0029578186447864617
0.00329753768047539
0.003622973312675725
0.003926021160490198
0.004199892026943515
0.004439558188196952
0.004641964171624173
0.0048060012018947725
0.004932288078950691
0.0050228266610872555
0.005080604823559529
0.0051092097133381455
0.00511249492185196
0.005094325664816934
0.005058409149604454
0.005008206073266032
0.004946913044424261
0.004877504035607595
0.0048028202053424385
0.0047257002033750245
0.0046491466961935506
0.004576528212677757
0.0045118155212679045
0.004459859459374747
0.00442653279584983
0.004418124204814183
0.0044239115828353165
0.0002912225191406734
0.00043827873548409177
0.000828334725520842
0.001663607749546203
0.0020023460429228956
0.002736116107015879
0.0031125506337077247
0.0038302950584109805
0.004150804585313646
0.0046761385156228385
0.004872817368696145
0.005024364272768019
0.005132646981215069
0.005201076731292078
0.005234029907905315
0.005236326795362134
0.0047556048425495805
0.004655746509308658
0.004291179208267936
0.004229555723894829
0.004179822867594618
1.1181276851315158e-05
3.164471659538434e-05
8.758848642686972e-05
0.00017444945412326557
0.000616846343867867
0.0010736860114648288
0.0013527297316266904
0.0023626663164847132
0.0034809272875065684
0.004434555201015217
0.0052128172506515314
0.005168091700852969
0.005106313399560582
0.005031154991364655
0.004945818241739236
0.004853116566461878
0.004556114095478398
0.0044596247701584185
0.004369818866195389
0.004191621165731333
7.062094909298345e-06
2.3718521835533988e-05
7.369156358454645e-05
0.00015553667125634785
0.0002682263555698487
0.00041245987631718635
0.0005899681107383324
0.0008028068973358269
0.0010525780987678084
0.0013396597547853989
0.001662488575702094
0.002016998401172757
0.0023963369013240117
0.00279097546390693
0.0031892716199805357
0.003578446037707322
0.003945824165571237
0.004280108439013842
0.004572431268349562
0.0048170000815357305
0.005011260928145936
0.005155625993276559
0.005252895207975626
0.005307532099389702
0.005324938550180143
0.005310829590386723
0.00527076098377861
0.005209820990407108
0.005132470957227276
0.00504250642534961
0.004943107858148539
0.004836954733354723
0.004726383390888735
0.00461357758705452
0.004500788050788712
0.0043905831877664395
0.004286141725751618
0.004191587602130902
0.004112404130441723
0.00405546888633715
0.004032759012270236
5.573615925473392e-06
1.863878565832092e-05
6.292243207790026e-05
0.00013985553446615293
0.0002485122670708086
0.00038988893460546937
0.0005662873063387562
0.0007804706374155327
0.0010347768156406165
0.0013302031951341244
0.0016655304475275995
0.0020366028123227583
0.0024359279144456894
0.0028527574409925784
0.0032737446179499407
0.003684144650651686
0.004069366522836228
0.004416562769189407
0.004715919627316597
0.004961399947568269
0.0051508556916470246
0.0052855928015975535
0.005369578745338546
0.005408510868648061
0.00540892858157152
0.005377486036035171