# vtk DataFile Version 2.0
time_10.vtk
ASCII
DATASET UNSTRUCTURED_GRID
POINTS   4141  float 
0.0001139562930271348         -5.575692195387702e-18        0.0                           
0.25000000000000056           0.00010828478345147158        0.0                           
0.5001050618806471            -4.142587386923525e-18        0.0                           
0.75                          9.773379345932963e-05         0.0                           
1.0000935927808792            3.0194545639385555e-17        0.0                           
1.25                          8.428895914346618e-05         0.0                           
1.5000791083298477            -2.436790422961988e-16        0.0                           
1.75                          6.766899298113792e-05         0.0                           
2.0000614114736566            1.0973446092716946e-17        0.0                           
2.25                          4.784651223211233e-05         0.0                           
2.500040558402837             2.2428226628196232e-17        0.0                           
2.75                          2.504604347459763e-05         0.0                           
3.000016871530107             -2.6860708936258943e-17       0.0                           
3.25                          -2.2671424305718026e-17       0.0                           
3.4999905411887275            4.374461758238989e-18         0.0                           
3.75                          -2.8671571085876966e-05       0.0                           
3.999961471315744             -8.245447765697016e-17        0.0                           
4.25                          -5.8778508355605636e-05       0.0                           
4.49993083913472              1.4512567470867953e-17        0.0                           
4.75                          -9.041498810198616e-05        0.0                           
4.999898718414638             -1.6017095981430157e-16       0.0                           
5.25                          -0.00012349885177908231       0.0                           
5.499865140474464             -1.3366004448220655e-17       0.0                           
5.75                          -0.00015813077139036202       0.0                           
5.999829932175712             1.474191598740247e-18         0.0                           
6.25                          -0.0001946297513833263        0.0                           
6.499792704724666             7.122213207888211e-17         0.0                           
6.75                          0.00011359120482358836        0.0                           
7.000110880810817             7.903635026109154e-06         0.0                           
7.250008570923597             0.00010470792102514214        0.0                           
7.500101199687483             1.001033947034119e-05         0.0                           
7.7500107753802565            9.324285614400503e-05         0.0                           
8.000088763905811             1.2375407869632323e-05        0.0                           
8.250013201426436             7.875219804092889e-05         0.0                           
8.500073207915793             1.488263078448253e-05         0.0                           
8.750015728884057             6.103741290326734e-05         0.0                           
9.00005441828574              1.741170768024224e-05         0.0                           
9.250018240610293             4.015120653774695e-05         0.0                           
9.500032526520233             1.985606614769718e-05         0.0                           
9.750020636107646             1.6364373824910935e-05        0.0                           
10.000007836715259            2.2128731049800542e-05        0.0                           
2.294634685403711e-05         0.2999898672006051            0.0                           
0.24998045679556902           0.30002442264794166           0.0                           
0.5000250862337072            0.2999609609404502            0.0                           
0.7499509227453576            0.30002637804163995           0.0                           
1.0000270088996241            0.29993031822064664           0.0                           
1.2499197662207697            0.3000282515717966            0.0                           
1.5000288695485158            0.2998981832760977            0.0                           
1.749887153341393             0.3000301168029396            0.0                           
2.000030753896547             0.29986459888576394           0.0                           
2.249853058875167             0.3000320750169905            0.0                           
2.500032766879422             0.2998293936405761            0.0                           
2.7498172366232914            0.30003423143068825           0.0                           
3.0000350105777844            0.29979217678880377           0.0                           
3.2497792293933947            0.3000366771006518            0.0                           
3.5000145259395357            0.3001097977278529            0.0                           
3.7501068559936392            0.30001712113140755           0.0                           
4.00001853051013              0.3001001445939074            0.0                           
4.2500963326671295            0.3000215396075483            0.0                           
4.500023123174878             0.3000877115740851            0.0                           
4.750082877734378             0.30002640395002245           0.0                           
5.000028082740798             0.3000721260097696            0.0                           
5.2500662027858755            0.3000314717539479            0.0                           
5.500033164777094             0.30005327109839              0.0                           
5.750046274665307             0.30003650890111316           0.0                           
6.000038146612905             0.30003126644637734           0.0                           
6.250023275583926             0.30004132882390194           0.0                           
6.500042871834373             0.30000635637026274           0.0                           
6.749997471764216             0.3000459243614116            0.0                           
7.0000474047684245            0.2999789317748416            0.0                           
7.249969297783531             0.3000501726711356            0.0                           
7.500051486661806             0.2999493950531297            0.0                           
7.749939162032777             0.3000540343769665            0.0                           
8.000055280561288             0.2999181886159387            0.0                           
8.249907461451505             0.3000577500199357            0.0                           
8.50005898779119              0.2998855385776507            0.0                           
8.749874339297545             0.30006150855861297           0.0                           
9.000062807789988             0.2998514341297677            0.0                           
9.249839707066483             0.3000655241526783            0.0                           
9.500066956557275             0.29981562990411714           0.0                           
9.749803242350485             0.3000700042141197            0.0                           
10.000071631262276            0.2997776587578713            0.0                           
0.00011066744881784746        0.6000217276168998            0.0                           
0.2500236186984844            0.6001050686076784            0.0                           
0.500101874444667             0.6000277496046589            0.0                           
0.7500299706395909            0.600094580545345             0.0                           
1.0000904427156008            0.6000346650138978            0.0                           
1.2500371118159794            0.600081113763309             0.0                           
1.5000759039667924            0.600042135109875             0.0                           
1.750044683799452             0.600064371882698             0.0                           
2.0000580503481684            0.6000497890102167            0.0                           
2.2500523213512795            0.6000443193023104            0.0                           
2.500036925929182             0.6000572939563459            0.0                           
2.75005971878562              0.6000211347646771            0.0                           
3.000012760420846             0.6000644300554535            0.0                           
3.2500667187231254            0.5999951440798977            0.0                           
3.499985944417785             0.6000711393337931            0.0                           
3.7500732488508977            0.599966832388369             0.0                           
3.999956947160247             0.600077267288587             0.0                           
4.250079197600275             0.5999365973642428            0.0                           
4.499926160479212             0.600082955381222             0.0                           
4.750084803602467             0.5999048092548608            0.0                           
4.999893904485816             0.6000884940950704            0.0                           
5.250090360125623             0.5998716377575203            0.0                           
5.499860266948529             0.6000941955815091            0.0                           
5.750096189876289             0.5998370049355961            0.0                           
5.999825086384014             0.6001003914592001            0.0                           
6.250102620813727             0.5998005844757583            0.0                           
[...]
POINT_DATA  4141
SCALARS Con float 1
LOOKUP_TABLE default
0.0017021005767245802
0.0018630845694150649
0.0021831411901890685
0.0025582093827753267
0.0029831044709089814
0.0034592249599965205
0.00398766990587063
0.004568693866347431
0.005201633597704276
0.00588490308854912
0.006616026176297476
0.007391701503586751
0.008207893408182551
0.009059938453971638
0.009942652333298557
0.010850409681825815
0.011777206461116569
0.012716596946403001
0.013663955416899713
0.014625815188764517
0.015692963376960672
0.016775574056363526
0.017778128400953788
0.018738879798181274
0.019707276968486565
0.020681139007409664
0.021662034815184875
0.022652252256894476
0.023655503179268046
0.024676642467340467
0.025721513257119348
0.026796800685743114
0.027909900651563773
0.029068792312649947
0.030281909654375713
0.031558008988939935
0.0329060235793318
0.03433476033030195
0.03585019180480393
0.03741410018316824
0.03831090199849352
0.0017365586514045878
0.0019015989670757923
0.0022283976295493367
0.0026107458880507096
0.0030434781312762816
0.003527862848946882
0.004064867189845815
0.004654605491956829
0.005296272822762532
0.005988146175359431
0.0067276244129940025
0.00751130278036806
0.0083350783959798
0.00919428335153244
0.010083845328636357
0.01099850186893627
0.011933116591199026
0.012883801089369542
0.01384906627304517
0.014853462824871311
0.01587589859017753
0.016886593909321308
0.017878729150430813
0.018868834159899536
0.019848366279933152
0.020828099204838267
0.021811801604624117
0.022803540712431042
0.023807875170121985
0.024830185126102328
0.025876673624868746
0.026954306386652853
0.02807071752094713
0.02923409975514854
0.03045308436348697
0.03173661242281873
0.03309378979704506
0.03453358436644039
0.03606203284116164
0.03764137383694859
0.0385479976381612
0.0017208795321386307
0.0018856875853430208
0.0022129082104273144
0.0025965913736259194
0.003031475479669116
0.0035187991738558186
0.004059477606741079
0.004653564954282569
0.005300191929153285
0.0059975731310350595
0.006743055974114367
0.007533210272276699
0.008363960859373616
0.00923077132129961
0.010128904146347264
0.011053808222249975
0.012001845345931154
0.012971020851559375
0.013965206277761126
0.01495813793560729
0.015921433494206126
0.01689226019057719
0.01789376302544984
0.018891642679709452
0.01988227096228789
0.020867074065971693
0.02185166363054677
0.022841070988442083
0.02384066889832206
0.02485636861282863
0.025894757313676
0.026963110248242664
0.02806934442469692
0.029221937265758908
0.030429823985192585
0.03170227930776718
0.033048776395245914
0.03447866917798352
0.03599836772571173
0.0375698395387636
0.03847177758547321
0.001693412986981807
0.0018582171494725909
0.0021862397572347614
0.002572085519799212
0.0030104960594648125
0.003502641017324711
0.004049347156921464
0.0046505637055864685
0.005305306567368133
0.006011672167842501
0.006766894466862852
0.007567445219695471
0.008409180255135072
0.009287536889578406
0.010197785763309125
0.011135338558466197
0.012095901268591079
0.013075494588261372
0.014063100619442801
0.015046176328235038
0.016023235612987127
0.016999272234633562
0.01798139933961499
0.01897112065315583
0.019958046803266398
0.020940486464326218
0.021920617044947806
0.022902873434587516
0.02389260783480895
0.024895964263051035
0.025919831825735654
0.02697182189683354
0.028060219338880515
0.029193909254883597
0.030382282599764714
0.03163512260635379
0.032962461047351746
0.03437424394103959
0.03587746629486658
0.03743491850799399
0.03833005922999209
0.0016545781634351156
0.0018193724449645423
0.002148599350858476
0.002537565437659505
0.0029810006002475866
0.003479978719969479
0.00403519616379186
0.004646447604232518
0.005312575534422723
0.0060314884245979755
0.006800220508932764
0.0076150317233538885
0.008471545638707093
0.00936491675193299
0.010290003254920499
0.01124145640549325
0.01221361500792713
0.013199224103994656
0.014190237785937027
0.015179785785793603
0.01616442908946956
0.01714586014597696
0.018126669437613676
0.019106458442502642
0.02008385741384304
0.021056791578259022
0.02202625790295259
0.02299551895775077
0.023969485631381
0.02495423733374652
0.02595682968912241
0.026985181862814418
0.028047991006132974
0.02915464505111684
0.0303151241940735
0.03153988508973159
0.03283971208775197
0.03422537841456128
0.03570480496087962
0.03724231857232416
0.03812808221513818
0.0016040186486997409
0.0017688594929387194
0.0020997446295963735
0.002492849587265506
0.002942876417865678
0.0034507668167661253
0.004017042747082686
0.004641291774656494
0.005322120562477469
0.006057174027838063
0.006843192578396191
0.007676103816694609
0.008551141992469292
0.009462979779216096
0.010405838075839606
0.011373528576591137
0.0123593037935126
0.01335603095968942
0.014356676554891252
0.015355460919350776
0.016349002212903394
0.01733607968030168
0.018316636844150153
0.01929067054431494
0.020257568381314605
0.0212173086023591
0.02217099518366309
0.023121563327695292
0.02407360181396037
0.025033107274693614
0.02600726591456503
0.027004305407544518
0.028033379793898514
0.029104466262432887
0.030228259380882163
0.03141605293783196
0.032679593146418974
0.03403075084316094
0.03547875674026222
0.03698985708649076
0.03786291358180305
0.00154139004635586
0.001706359218770919
0.002039422580855227
0.0024377586514927247
0.002896021121483849
0.003414981187036319
0.003994941279875785
0.004635229923895321
0.00533415710106456
0.0060890315469724265
0.0068962124463061054
0.007751191410075671
0.00864869787047758
0.009582814736202873
0.010547087921982126
0.011534612083376939
0.012538181041699587
0.01355055134836665
0.014564965038102973
0.015575769513588519
0.016578840446512123
0.0175716269458703
0.01855274859179411
0.01952149877002019
0.0204777355164712
0.02142198479012023
0.02235591860764507
0.02328260769350424
0.024206658321471366
0.025134134567916123
0.02607243077393625
0.027030141993554645
0.028016949323627555
0.02904351376180206
0.030121370180422175
0.031262812835676
0.03248075687073142
0.03378842841109395
0.03519663769862403
0.03667391973233005
0.03753052014788782
0.0014664076399154024
0.001631611093593778
0.0019674280435460997
0.0023721568081856445
0.0028403741325804346
0.0033726403743792777
0.003968994999758092
0.004628459888630882
0.005348994071038645
0.0061275066335968464
0.006959901645632597
0.007841152689215643
0.00876540331305727
0.009726088014100685
0.010716069973350341
0.011727812106590888
0.012753603474624153
0.013785884837054974
0.01481764768367488
0.0158428364048216
0.01685663177044433
0.017855523788229733
0.018837209594840785
0.01980044358476642
0.02074494619696472
0.02167148899487326
0.02258204171037425
0.023479955887611103
0.02437005372139585
0.025258638758162807
0.026153436025587406
0.027063505321683
0.027999147587576923
0.028971811248715028
0.02999399670677677
0.031079153541020636
0.03224155579333065
0.03349600614892151
0.03485515351856909
0.03629029927944253
0.03712617404945991
0.0013789360222243908
0.0015444886495548883
0.0018836661578452262
0.002295995763738991
0.0027759420767881266
0.0033238133244887884
0.00393934690862712
0.0046212185324820566
0.005366992546373228
0.006173127153775647
0.00703501107815853
0.007947032419938792
0.008902680449694304
0.00989468061589723
0.010915166419288767
0.011955894828988513
0.013008516250391074
0.01406489455350487
0.015117454359827504
0.016159502552317222
0.017185468427858484
0.01819103203458954
0.01917315449217195
0.020130058684218795
0.021061226076477136
0.02196743081260879
0.02285082162604933
0.02371500503384608
0.02456510771402541
0.025407791475422423
0.026251228386338313
0.027105047598654584
0.02798026901244285
0.028889231567797276
0.02984551773164753
0.03086387088984209
0.0319600909640012
0.0331507604038098
0.03445063034945918
0.03583428546890235
0.03664455488630786
0.0012790941057879111
0.0014450931038175127
0.0017882228842449257
0.0022093612490416375
0.0027028203033386653
0.003268616202216967
0.0039061530261353026
0.00461373293991497
0.005388495991035516
0.006226412096242395
0.007122305704843096
0.008069917772130595
0.009062009740839821
0.0100905131462708
0.01114672742899439
0.012221567436060534
0.01330585645008608
0.014390651864950635
0.015467576965752346
0.01652912515881425
0.01756890496548583
0.01858181012728021
0.019564120051634694
0.020513554331320443
0.021429307134894524
0.022312083926915034
0.023164142714919598
0.02398933556991944
0.024793135961633024
0.025582645339149866
0.026366576893170644
0.02715522289371163
0.027960412482219435
0.028795465691071585
0.02967514505537848
0.030615601834916104
0.03163430228504447
0.0327497889614758
0.03397916421576506
0.0353008427660359
0.03607994051929998
0.0011673797875648717
0.0013338617409578868
0.0016814434378178164
0.002112519336985857
0.0026212066341086476
0.0032071942465332175
0.003869534441520878
0.004606145902807696
0.0054137331937524
0.0062877564190486224
0.007222436583491001
0.008210805723831236
0.00924481008898113
0.010315471527195582
0.01141310822413668
0.012527610709206523
0.013648762359936133
0.014766585630078325
0.015871688899537325
0.016955586414762528
0.018010968576572386
0.019031909978696904
0.02001401557336739
0.020954515072404898
0.02185232109881945
0.02270806427574245
0.02352411480269202
0.024304593124999087
0.025055370522739814
0.025784059086146758
0.02649999336217366
0.027214207528898304
0.027939412888302245
0.028689978756432498
0.029481917068149982
0.03033286693703848
0.031262064201954036
0.03229015483385383
0.03343681052946702
0.034684838065598585
0.03542645773086503
0.0010448124385388545
0.0012116894863560123
0.0015640152296011096
0.0020059585357683567
0.00253140241818745
0.0031396834061607455
0.00382950307496238
0.004598411350234092
0.0054426907713828595
0.006357289833284236
0.00733579727586747
0.008370471669811256
0.009452338481176095
0.010571361309085944
0.011716687008514534
0.012876956600444035
0.014040665806988987
0.015196552208709057
0.016333981840933993
0.017443308337241253
0.018516182600703944
0.019545799589454436
0.020527078434626093
0.02145678078003826
0.02233357734823589
0.02315807515520241
0.023932816948614828
0.024662262711523993
0.025352761256992522
0.02601251861119791
0.02665156936492295
0.027281756839846405
0.02791672651973546
0.028571935130510314
0.029264674502176312
0.030014105269201317
0.030841284529618547
0.03176905107656896
0.03281981393983177
0.03398133269831919
0.03467840689406342
0.0009130880159058779
0.0010800582437152332
0.0014370495598075433
0.0018904214814975827
0.00243379460136278
0.003066145372020355
0.0037858548689847665
0.004590153600504251
0.00547494913457754
0.0064347027905826745
0.007462355461715741
0.008549323871700739
0.009685584585739692
0.010859854751678395
0.012059868267816383
0.013272735216690501
0.014485362615124875
0.015684907237338626
0.016859227914686283
0.017997306099012216
0.019089609092195873
0.02012837926643499
0.021107842408645338
0.022024337597839238
0.022876378015358585
0.023664656541169844
0.02439201198891479
0.025063371684740793
0.025685685242849587
0.026267862349637374
0.02682072570017936
0.027356987741424643
0.027891257478611937
0.028440080014563565
0.02902200754216745
0.029657695348163343
0.030370005447026564
0.031183986180690525
0.032124880724561315
0.03318593850073099
0.03383066277523249
0.0007747363317867179
0.0009411637642078077
0.0013021527758951853
0.0017669180283536722
0.002328811614616499
0.0029864697703535364
0.0037380245237250607
0.004580484337705827
0.005509475282438566
0.006519032213814689
0.00760145115559026
0.00874723404671369
0.00994515086791362
0.011182431550775966
0.012445085397571925
0.01371833080347924
0.014987105195759076
0.016236616171419204
0.01745289129727463
0.018623286289179045
0.019736918794281674
0.020785005896910937
0.02176109587042874
0.02266119640535644
0.02348381121343368
0.024229903567379488
0.024902809062706886
0.025508120773537174
0.0260535689062094
0.02654891450917379
0.027005873386611486
0.027438082763223137
0.027861119153818663
0.02829257163352991
0.0287521698717142
0.029261959581283862
0.029846504319244026
0.030532987133153625
0.03134948899892271
0.03229523543137067
0.03287915177481048
0.000633260771077182
0.0007980227666369801
0.001161473194953063
0.0016367097498169827
0.002216847131284066
0.0029002399919688614
0.0036848990538451863
0.004567774159754288
0.0055443684194393696
0.00660840268809186
0.00775155786961871
0.008963342681491026
0.010231122406617495
0.011540325946563951
0.012874827726616953
0.014217480159012108
0.015550754476231653
0.01685743555854002
0.018121311955771723
0.019327806036934743
0.020464499887596594
0.02152152801575861
0.022491825203892882
0.023371234202640194
0.024158491325275092
0.024855117412412735
0.02546524642033972
0.025995425105901814
0.026454414910238287
0.02685302322585901
0.027203985588891363
0.027521915125672026
0.027823329734585053
0.028126763059350583
0.02845296035329504
0.028825153892737744
0.02926939618458266
0.02981481628247798
0.030492229134976696
0.03130724168718147
0.031821396454092515
0.0004932302467485206
0.0006545337380383012
0.0010177049017480702
0.0015012576169104186
0.002098150970883123
0.002806566628451908
0.0036245943416241076
0.004549380818855682
0.005576559759367686
0.006699724824468016
0.007910010200700516
0.009195846418850129
0.010542940154451154
0.011934502839100695
0.013351723584669612
0.014774452225141467
0.016182031806142028
0.017554202393014657
0.018871991687146854
0.020118514088719144
0.021279616450892946
0.022344332133633012
0.023305130755442046
0.02415797476472996
0.0249022129467678
0.025540353204199843
0.0260777626207463
0.026522342474557356
0.026884221195278953
0.027175500888446842
0.02741008449066811
0.027603602239634522
0.0277734489582681
0.02793893812051827
0.028121575216847453
0.028345451249374563
0.0286377443390625
0.02902920913018128
0.029553161167844157
0.03022191666740762
0.030657114874327165
0.0003602718774212475
0.0005154517233101154
0.0008740298930473992
0.001362129357921741
0.0019727024531004628
0.0027039055818269256
0.003554204699930683
0.004521344341397759
0.005601478220069086
0.006788363480334362
0.008072712021065001
0.009441785235132278
0.010879301814610276
0.012365695844890693
0.013878721816667824
0.0153943584003148
0.016887922817164117
0.01833527999770752
0.019714021447308546
0.021004498973737268
0.022190625466420307
0.02326039215480451
0.024206091808103857
0.025024272908507384
0.025715476549261797
0.026283823214373343
0.02673652137640774
0.02708336583765639
0.02733628352387768
0.027508971633816767
0.0276166590111082
0.027676009695025094
0.02770517743205084
0.02772401370451818
0.027754429422257126
0.027820912201495115
0.027951213105594067
0.02817713765866793
0.02853420703487377
0.02904166377669646
0.0293888016968615
0.000240923877790644
0.0003862320437498578
0.0007339688603295341
0.0012209113412892105
0.0018401067904130557
0.002589865469623491
0.003469540492965013
0.004478076441802088
0.005612713503275798
0.006867806791493341
0.008233854526830337
0.009696859594378942
0.011238125990615038
0.01283455277563421
0.014459428439769443
0.016083659371445548
0.01767730208655222
0.0192112234842983
0.020658698231688144
0.021996770607276686
0.023207253252522445
0.024277297929299984
0.02519953659132441
0.025971846149742198
0.026596826915620295
0.027081102887526035
0.027434551871368482
0.027669561110807143
0.027800383617762575
0.027842647793666266
0.02781305149176784
0.027729254272114402
0.027609969059279642
0.027475247224720622
0.02734694847794354
0.02724939205307415
0.02721018969863879
0.027261308118453627
0.027439532624832178
0.027771836120097485
0.028022429340301528
0.00014506771345464467
0.0002726700143792119
0.000601311827656983
0.0010791988162444717
0.0016994241846495198
0.0024609963869762575
0.003364908484857352
0.0044121185969395816
0.005601752285411382
0.0069294024978119335
0.00838570130271463
0.009955330601101845
0.011616636565011825
0.013341956480725125
0.015098680729040756
0.016850961399690674
0.018561871993977703
0.020195744188142222
0.021720382115508346
0.023108885971318733
0.02434089809920618
0.025403190134576415
0.026289616210293406
0.02700053999386811
0.027541894538301123
0.0279240487204847
0.028160642588844487
0.0282675226058787
0.02826186953090691
0.028161573227459845
0.02798487685381241
0.027750289738530935
0.02747675492876623
0.02718405137759382
0.02689341179712014
0.026628338138235667
0.026415611814444677
0.026286397970889632
0.02627728254978868
0.02642115474180045
0.026567181587172247
7.483685342710409e-05
0.0001808592882352646
0.00048002742571326147
0.0009382768264129143
0.0015491400303596762
0.0023130734801395467
0.0032335592058702683
0.004314673590649941
0.005558549360091849
0.0069629753497010794
0.008519297902043945
0.010210892920733312
0.012012467832172455
0.01389039577384243
0.015804151893819878
0.01770874173017573
0.019557821660026873
0.021307072376627927
0.022917336500096905
0.024357093957467452
0.025603995698306712
0.026645367420961425
0.02747777131697415
0.028105843355730256
0.028540684088910966
0.028798083939345645
0.028896819316249954
0.0288571915636943
0.02869990959830298
0.028445357002039755
0.02811323912923582
0.02772257970004166
0.02729202572499915
0.026840421839889047
0.026387624661706972
0.025955541658322204
0.025569374206879273
0.025259095220732317
0.025060118282542784
0.02500994119733947
0.02504383790587715
0.0014276647934338455
0.002191011509269236
0.0042429415502973225
0.008706098639435729
0.010536911201480747
0.014548909289796661
0.016637513856124157
0.020701022923034343
0.022563656729946247
0.025721413315075173
0.026958323245257307
0.027949738918598206
0.02869737879753153
0.02921252371566886
0.029513479385324774
0.029622999512440355
0.02704259821903338
0.026445503755062664
0.02424339649436816
0.023870875424827524
0.023567583703081076
3.662914610607492e-05
0.00012563373253946157
0.0003941634911970541
0.0008295368876316748
0.0031266756366678623
0.005545928996515256
0.007036260713886925
0.012498397259883451
0.018707524415333618
0.024248938831391113
0.02956598355490922
0.02936764271077789
0.029052217126522593
0.02864224196543467
0.02815830769751683
0.02761923654617945
0.025845641002636862
0.025262543224452462
0.024719117601931073
0.02364086758821619
2.523197640442728e-05
9.386709761444855e-05
0.00032895110084729955
0.0007360997316417761
0.0013108802235478863
0.0020573567284417923
0.00298522306593174
0.004106196398334368
0.005429977949220582
0.006960279476968667
0.008691132058459733
0.010603976485009502
0.012666091154263434
0.014830860938967107
0.01704013883461064
0.0192285473405239
0.021329116497933787
0.02327931298755614
0.025026415540778967
0.02653137329968568
0.02777067614247802
0.028736218839548466
0.02943351731349361
0.029878850234976256
0.0300959460250401
0.030112750198238704
0.029958652691976135
0.02966238181503683
0.029250623128381833
0.02874731670115553
0.028173529149714615
0.027547781017702066
0.02688672164837443
0.02620607215029847
0.025521793534746876
0.024851467856764547
0.024215931880495572
0.02364113483240531
0.023160390582633947
0.022814234242714306
0.022674501948038422
2.71211741799303e-05
7.608350470985473e-05
0.000279664691185185
0.000659495170921847
0.0012115185584606733
0.0019412223986090588
0.0028612614589403193
0.00398711245212716
0.005332470383114791
0.006904523504577647
0.00869945576366872
0.010698735973315825
0.01286693851748223
0.015151803515286546
0.017486949778022984
0.0197971171034132
0.02200518318078692
0.02403970130393281
0.02584154852195598
0.027368531575500985
0.02859736027689715
0.029523038017052094
0.030156224599257254
0.030519385851657706
0.03064255946802179
0.030559408289053146
0.030303994288638496
0.029908467532225334
0.029401675318320206
0.028808577832807936
0.028150304117882663
0.027444680682787385
0.026707094638510863
0.02595159722265752
0.02519219782943168
0.024444350485393597
0.02372661541931687
0.02306271157899464
0.022482974339581626
0.02203361340345885
0.021837789899498514
3.867861032396313e-05
6.763626609362547e-05
0.00023806353561509473
0.0005879901785313573
0.0011141719610475375
0.0018236895380846299
0.0027325134656285234
0.003860485007903223
0.005226014213935353
0.006840536061235644
0.008703037064801493
0.01079534097253387
0.01307911983757466
0.01549562557363055
0.017968791746994933
0.020411646114981256