# vtk DataFile Version 2.0
time_10.vtk
ASCII
DATASET UNSTRUCTURED_GRID
POINTS   4141  float 
9.270888164240603e-05         -2.9995018475856323e-18       0.0                           
0.25000000000000006           8.814262520109094e-05         0.0                           
0.5000855417352877            9.232455506657391e-17         0.0                           
0.75                          7.961392605641472e-05         0.0                           
1.0000762569903034            -3.1460377228250364e-17       0.0                           
1.25                          6.870023062585777e-05         0.0                           
1.5000644855052188            -4.831055710694317e-18        0.0                           
1.7499999999999996            5.5166255710581155e-05        0.0                           
2.000050062892864             9.599690702599839e-18         0.0                           
2.25                          3.899116129113387e-05         0.0                           
2.5000330396842108            -3.3761342495948376e-16       0.0                           
2.75                          2.0372402874524103e-05        0.0                           
3.0000137025897105            -1.370985310667833e-16        0.0                           
3.25                          3.90979513919646e-17          0.0                           
3.4999921849371383            9.290536057820367e-17         0.0                           
3.75                          -2.3597070928687123e-05       0.0                           
3.9999683248283167            -6.070813942565625e-17        0.0                           
4.25                          -4.8249809854150116e-05       0.0                           
4.499943261478509             -7.817711716134127e-17        0.0                           
4.75                          -7.409683044955288e-05        0.0                           
4.999917038453778             -1.1878244499561826e-16       0.0                           
5.25                          -0.00010106484606587488       0.0                           
5.499889688646123             -1.3332671995677023e-17       0.0                           
5.75                          -0.00012923193845466128       0.0                           
5.999861071673525             -1.889048509963937e-17        0.0                           
6.249999999999999             -0.0001588658538604567        0.0                           
6.499830857954931             9.03693730655127e-17          0.0                           
6.75                          9.241045541282544e-05         0.0                           
7.000090230146307             6.362211537294132e-06         0.0                           
7.2500069089312165            8.52526309730445e-05          0.0                           
7.500082417087695             8.090265148962162e-06         0.0                           
7.7500087189240965            7.597134810622147e-05         0.0                           
8.000072335731195             1.0034838394165933e-05        0.0                           
8.250010714562869             6.419485999959891e-05         0.0                           
8.50005967999028              1.2098312771413117e-05        0.0                           
8.750012794782139             4.975737516746913e-05         0.0                           
9.000044355780982             1.4179027023454137e-05        0.0                           
9.250014860192653             3.270562083985629e-05         0.0                           
9.500026477211092             1.618535457203788e-05         0.0                           
9.750016823388743             1.3273732320958914e-05        0.0                           
10.000006303816455            1.8038322289121747e-05        0.0                           
1.8722407217137907e-05        0.29999159370155365           0.0                           
0.2499838806391611            0.3000199360265213            0.0                           
0.5000204710755359            0.2999679058555025            0.0                           
0.7499596881261574            0.3000215106794768            0.0                           
1.0000220169087968            0.29994283723765774           0.0                           
1.2499342165720673            0.30002301084200267           0.0                           
1.5000235036797143            0.29991660356618177           0.0                           
1.749907612717819             0.30002449647541524           0.0                           
2.0000250032114657            0.29988924887179086           0.0                           
2.2498798632229375            0.3000260549559465            0.0                           
2.5000266069617725            0.29986063453888956           0.0                           
2.7498507644956187            0.300027779781384             0.0                           
3.000028406551108             0.29983042968629564           0.0                           
3.249819926263547             0.30002975387507064           0.0                           
3.5000116756150508            0.3000893450508247            0.0                           
3.7500869753353454            0.3000138004211443            0.0                           
4.00001495653984              0.30008155550146004           0.0                           
4.250078470000841             0.3000174282614796            0.0                           
4.500018730316248             0.3000714768467744            0.0                           
4.750067548529286             0.3000214295728424            0.0                           
5.00002281129798              0.30005879703866156           0.0                           
5.250053969408721             0.30002560067042683           0.0                           
5.500026993732335             0.3000434184511712            0.0                           
5.750037705288938             0.3000297433219814            0.0                           
6.000031088300494             0.3000254420456359            0.0                           
6.250018909053442             0.30003369743899033           0.0                           
6.500034960840604             0.30000506474011596           0.0                           
6.749997793106053             0.3000374697145243            0.0                           
7.000038685429032             0.2999826170588433            0.0                           
7.249974729821759             0.3000409363977962            0.0                           
7.500041997171529             0.299958440577222             0.0                           
7.749950071221395             0.3000440454649273            0.0                           
8.00004504356342              0.2999329333264245            0.0                           
8.249924176829293             0.30004701498685843           0.0                           
8.500048000669638             0.2999063011093305            0.0                           
8.749897179553113             0.3000500057860745            0.0                           
9.000051039426427             0.299878544270382             0.0                           
9.249869012979081             0.30005320454169565           0.0                           
9.500054349773803             0.29984946060521045           0.0                           
9.749839407581073             0.3000567970670954            0.0                           
10.00005811005031             0.2998186528625682            0.0                           
9.002045078576436e-05         0.600017462085242             0.0                           
0.2500190093143898            0.6000855150410079            0.0                           
0.5000829382722153            0.6000223961026747            0.0                           
0.7500242198272291            0.6000770395042228            0.0                           
1.000073685640966             0.6000280785746894            0.0                           
1.2500300913655569            0.6000661090669015            0.0                           
1.500061870691538             0.6000342254525123            0.0                           
1.7500363233643703            0.6000524753427031            0.0                           
2.0000473189360477            0.6000405249630757            0.0                           
2.2500426081178895            0.6000361077006399            0.0                           
2.500030066208089             0.6000466951584538            0.0                           
2.7500486859153854            0.6000171533222657            0.0                           
3.000010300848283             0.6000525503436708            0.0                           
3.2500544270614977            0.5999958817159432            0.0                           
3.4999883524361692            0.6000580466158076            0.0                           
3.750059765970618             0.5999727123803149            0.0                           
3.999964624431641             0.6000630213601542            0.0                           
4.250064576814523             0.5999479825880859            0.0                           
4.49993945357803              0.6000675917551188            0.0                           
4.750069068975183             0.5999220215090824            0.0                           
4.999913127455197             0.6000720102379299            0.0                           
5.250073494747515             0.5998949862222172            0.0                           
5.49988573221086              0.600076545370959             0.0                           
5.75007813341123              0.5998668200911058            0.0                           
5.999857139088617             0.6000814884549621            0.0                           
6.250083275485943             0.5998372511595564            0.0                           
[...]
POINT_DATA  4141
SCALARS Con float 1
LOOKUP_TABLE default
0.0010965863411507883
0.001203236589377157
0.00141512899407089
0.0016640304255564125
0.0019466530606027455
0.002264030258880225
0.0026169831177061576
0.003005754811401823
0.003429955744861539
0.003888554071294056
0.0043798914533781765
0.00490172064614534
0.005451260439843741
0.006025260388217739
0.0066200634162366725
0.007231644705082643
0.007855627192339206
0.008487221761092737
0.009122815324146787
0.009769260281014259
0.01050423403638436
0.011248067935924094
0.011919997761012959
0.012559498048732324
0.013203894052709888
0.013851115381102284
0.01450193872785764
0.015157737594529593
0.015820979767157677
0.016495006251496202
0.017183915496956154
0.01789245976375318
0.01862595588240169
0.01939020063207562
0.020191386341894577
0.021036013318660188
0.021930790396954565
0.02288241134349029
0.02389557613439111
0.024944114431139648
0.025546440100034474
0.0011186213367193579
0.0012279634373060456
0.001444332831208512
0.0016980858291194046
0.001985946060641866
0.0023088600447762875
0.002667560444789541
0.0030621962477190737
0.0034922826522451296
0.003956696018324429
0.004453695096870632
0.004980966055548586
0.005535689245758777
0.006114625973812752
0.006714226529640258
0.007330781383851072
0.007960664022780149
0.008601200651238487
0.009251889953768778
0.009932050610482057
0.010625635134889072
0.011310172091840279
0.01197843618875551
0.012641542112882485
0.0132949418221191
0.01394681461077731
0.01459981468960845
0.015256726972223912
0.015920680371110035
0.016595415179366305
0.017285296177990003
0.017995278293596102
0.0187308472540159
0.019497949379233583
0.020302914066093868
0.02115236933437519
0.022053142940351524
0.023012040141268852
0.024033815938886868
0.0250926595870167
0.025701599699965987
0.001108038995161564
0.0012172216013899802
0.001433863571223974
0.0016884989784659702
0.0019777880757815215
0.0023026583486300506
0.0026638097584806056
0.0030613542975612387
0.0034947687968428544
0.003962894539330309
0.004463965533217062
0.00499566559233476
0.005555217009843961
0.006139508436324033
0.006745283577001861
0.007369434603808771
0.008009567288807265
0.00866462164286476
0.009338025666917205
0.010009897583647868
0.010654970364425195
0.011304263016051338
0.01197937307654021
0.012650431847727305
0.013313541723015488
0.013970204792889086
0.014624661178410558
0.015280546966348523
0.015941663864365636
0.016612177862729775
0.017296749162427738
0.018000559560255428
0.0187292927587463
0.019489087349832686
0.020286473425290108
0.02112829680084611
0.02202162473931161
0.02297351869752378
0.023989005857952713
0.025042215853224265
0.025647923653212217
0.001089549642015903
0.0011987262237043916
0.0014158937398157671
0.0016719646879807923
0.0019636025913681433
0.0022916906768183053
0.0026568731094907564
0.0030591965388171373
0.0034980675638699972
0.003972257034386474
0.004479934376921076
0.005018732872146262
0.005585848963289994
0.0061781807370145745
0.006792509648562527
0.007425727353797026
0.008074946774669
0.008737472014141568
0.009405023977238434
0.010067234113841103
0.010723406104303859
0.01137783206110297
0.012036350463560264
0.012700619861456323
0.013361571974964615
0.014017363272410198
0.014669491132995921
0.01532111262115008
0.015976019866162323
0.016638557321171966
0.017313606421251158
0.018006585833806623
0.018723430581900635
0.019470552078123524
0.02025478214226621
0.021083302710154985
0.021963553280549185
0.022902999591948952
0.023907087826445822
0.02495056973065027
0.025551546150980053
0.0010634296183861312
0.0011725953954999679
0.0013905505727377625
0.0016486878035951449
0.0019436650884523312
0.0022763043331225923
0.0026471667472255066
0.003056201451578215
0.0035027063778258426
0.003985335276334157
0.004502133582048875
0.005050602766358535
0.005627792240916876
0.006230412885493352
0.006854954037515969
0.007497734394800494
0.00815479190584895
0.008820844572547776
0.009489763726452683
0.01015639735250668
0.01081815279338223
0.011476705665346627
0.012134422154327364
0.012790894429621932
0.013444863261903004
0.014094265528438071
0.014739487899689901
0.015382712742702002
0.016027354676805036
0.01667768233201205
0.017338676292049958
0.018015954997554755
0.018715723660284105
0.019444723326897485
0.02021017269164224
0.021019698297025984
0.02188124195537934
0.022802829451365723
0.023790543416060978
0.024820160697396745
0.02541448578051283
0.0010294657329723144
0.0011386551764859445
0.001357690912811305
0.001618560746353609
0.0019179071863720729
0.002256467335790855
0.0026346909273933876
0.003052395184263833
0.0035087279246107817
0.0040021744986212665
0.004530590778488265
0.005091260086250311
0.00568096943017227
0.006296093580709899
0.0069326604737486325
0.007586361359462379
0.008252406109047511
0.00892561431388345
0.009600813414429973
0.010273715679830592
0.010941946082380005
0.01160480233609945
0.012262415640892052
0.012914821781636781
0.013561350687059649
0.014201694960264574
0.014836340911434457
0.015467166858005255
0.0160972977402814
0.01673089936414917
0.017373010302649032
0.018029435408984662
0.01870666940035175
0.019411832713593046
0.020152608086412598
0.020937170220257983
0.02177409576534061
0.022672139364877456
0.023638249982673103
0.02464950761142585
0.025234891095294677
0.0009874632232588717
0.0010967252735128287
0.0013171726527617803
0.0015814834108032144
0.0018862715707611301
0.0022321646619753496
0.0026194718160161847
0.0030478446175557505
0.003516240678143727
0.004022928175742256
0.0045655135456292685
0.005140989749168407
0.005745800316292822
0.006375909451957265
0.00702686567217057
0.007693845127942908
0.00837174263907726
0.009055361021298834
0.00973980527189034
0.010420995032660564
0.011095997454039417
0.01176306868153868
0.012421294860184217
0.013070151144743095
0.01370941371689979
0.014339243595252979
0.014960604596769653
0.01557547476226436
0.016186962351550788
0.01679924518974162
0.017417472250082975
0.018047669420959263
0.018696661452825832
0.019372004470487376
0.02008192209253018
0.02083523805439456
0.021641292471850197
0.022509729743810086
0.02344854644455808
0.024436403580130498
0.02501029066286864
0.0009372783126044856
0.001046674532601303
0.0012688939789675978
0.001537390864598116
0.0018487328082667832
0.0022034118857022014
0.0026015690212985616
0.0030426599114446737
0.003525417123296528
0.004047850307015836
0.004607267670814167
0.005200317415484121
0.0058230468045897986
0.00647097527003642
0.00713917921037521
0.007822402008906918
0.008515209351094235
0.009212225769448657
0.009908441728919843
0.010599526938580257
0.011282057221526663
0.01195355927664818
0.012612408335041462
0.013257686481842947
0.013889095728547983
0.014507032701541836
0.015112715473105416
0.015708342789361198
0.0162971702545561
0.01688352243265392
0.017472749370325287
0.018071164842113442
0.018685983280104637
0.019325260819035007
0.019997838891027606
0.02071328567779021
0.021481823207709336
0.022314128105248
0.023219419415520956
0.024178268596782487
0.02473777694610481
0.0008788790568020656
0.0009884720868451196
0.0012128350915332575
0.0014862825513075836
0.0018053138221364288
0.0021702594753407827
0.0025810681487858215
0.003036975653899951
0.00353646286868975
0.004077249227840575
0.0046563069615389845
0.005269897161018616
0.005913628807097023
0.006582541719591257
0.0072712172005693606
0.007973923025889238
0.008684803153220691
0.009398111869780209
0.010108474804903289
0.010811135811561783
0.011502138821674118
0.01217841839649006
0.012837807188662455
0.013479003940756849
0.01410156102822015
0.014705909168356445
0.015293427608811378
0.015866515867965166
0.016428648250070513
0.016984388915256336
0.01753937585662983
0.01810028472280478
0.018674785769817803
0.01927150074175105
0.019899961115223255
0.02057056495901911
0.021294520617899527
0.02208366694332907
0.022948618158718088
0.02387220640721989
0.024414070203975503
0.0008124157601683985
0.0009222499403529446
0.0011491049735467213
0.001428252560882339
0.0017560990696623175
0.0021327889701621998
0.002558060559925319
0.0030309149326725464
0.003549565313411737
0.004111419901903277
0.004713086210713646
0.005350400918403759
0.006018489482214375
0.006711859227430773
0.007424529180371285
0.008150199350161471
0.008882458149347709
0.00961501936500261
0.01034196879027801
0.011057992509043227
0.011758559818268349
0.01244004549289351
0.013099795534079564
0.013736157065468529
0.014348495617042763
0.014937219528050856
0.015503811973803438
0.016050865594848095
0.016582106047542594
0.017102399102670546
0.017617740306628566
0.018135233721317773
0.018663066323811792
0.01921048354696851
0.019787767512674203
0.020406215820306436
0.021078109544811974
0.02181656265745355
0.02263374441061463
0.02351511362398613
0.02403563629609788
0.0007383035390863058
0.0008483745521526191
0.001077992743886271
0.0013635192393907666
0.0017012420196887293
0.002091098669070549
0.002532608506178253
0.0030245358519457055
0.003564823955362239
0.004150560732156761
0.004777967916256696
0.005442420986015934
0.006138506920563483
0.006860124890306154
0.0076006322804178985
0.008353034633790276
0.009110212840456657
0.009865174233277225
0.0106113082196655
0.011342624091937394
0.012053951412920667
0.012741091668719957
0.013400920960918612
0.01403145256761239
0.014631873014413883
0.015202562906888917
0.01574511006078467
0.016262315941442985
0.01675819525500841
0.01723796785161489
0.017708045182868656
0.01817601524131461
0.01865063077883006
0.01914180414371193
0.019660609699654347
0.02021929134219876
0.020831263697972943
0.02151100248741733
0.0222723689099799
0.023103821374435732
0.023598842463303082
0.0006573154959718756
0.0007675260746614669
0.0010000211639103003
0.0012924514057108011
0.0016409638362052525
0.0020452757122304643
0.0025046927890269464
0.0030177582814283834
0.0035821610371920285
0.004194674253469324
0.004851120907298509
0.005546377187135768
0.006274424046564142
0.007028453415756033
0.007801030674313739
0.00858430913111066
0.00937028578656602
0.010151081687494712
0.010919225975662262
0.01166792193936315
0.01239127658279493
0.013084481948521293
0.013743944591227608
0.01436736717171866
0.0149537906048753
0.015503607099680052
0.016018553303478233
0.016501691080767555
0.016957381844730435
0.017391259607752736
0.017810207819741783
0.01822234516884244
0.018637024573264643
0.01906484806165004
0.019517697650287713
0.020008779015107375
0.020552666104178646
0.021165245988293623
0.02186217371466951
0.022635276473425687
0.02310015889667798
0.0005706824483560968
0.0006807812139224718
0.000915998257884491
0.0012155870819868142
0.001575539304626643
0.001995350693995297
0.002474139273254348
0.0030102673105161814
0.003601208906006834
0.004243447336758305
0.004932404168442276
0.005662416544433669
0.006426776808185059
0.007217843078003248
0.008027222103110831
0.008846017504554552
0.009665128584234515
0.010475578409261558
0.011268846179261393
0.012037178963323696
0.012773861573002119
0.013473430250835876
0.01413182385924357
0.014746474156803326
0.015316342693117917
0.015841915579252415
0.01632516888733666
0.016769517127951748
0.017179756455735426
0.01756201262473684
0.017923702528551407
0.018273516310953825
0.0186214253251853
0.018978718580033863
0.019358067375812832
0.019773614000974125
0.020241071833342256
0.02077774000318633
0.02140112111025571
0.02210676238218811
0.02253640756311475
0.00048019165519474756
0.0005896923974753382
0.000827060672642331
0.0011336393651838277
0.0015052655314313546
0.0019412311795894055
0.0024405209586367102
0.0030013899345610892
0.0036211700718581513
0.004296105955672941
0.005021229580411186
0.005790297814821287
0.006595812681280691
0.007429136235693064
0.008280701456587646
0.009140309238876078
0.009997491105614298
0.010841909231924464
0.011663761262324105
0.012454157877595464
0.013205446122176466
0.013911459787245093
0.014567688194205786
0.015171364506291701
0.015721482904453646
0.016218759572198385
0.01666555545331607
0.01706577932688871
0.01742478863954277
0.017749303358923472
0.018047345254787128
0.018328212221134812
0.01860249401578659
0.018882132791633147
0.019180528244751683
0.019512682694722172
0.019895371305591252
0.02034724524410935
0.020887646454660038
0.02151615862334703
0.021905058642245664
0.0003882705586723374
0.000496351180957311
0.0007346994587699232
0.0010474829920560016
0.001430409992572782
0.0018826125291987869
0.0024030346665380336
0.002989943723380926
0.0036406479505797095
0.0043512419603887265
0.005116400985318978
0.005929259366639382
0.006781401627724311
0.0076629826308721415
0.008562978663972489
0.009469555539160759
0.010370525179159337
0.011253851124742347
0.012108158003617656
0.012923201196058456
0.013690260151733488
0.014402430633781438
0.015054805130206338
0.015644544330813564
0.01617085387322502
0.0166348885000418
0.01703960961645819
0.017389623000024775
0.017691021052694895
0.017951250507867292
0.018179021668266546
0.01838427105358817
0.01857818473477132
0.018773286373531806
0.01898359052339346
0.019224817542891695
0.019514655371693786
0.019872972326524595
0.020320870924230187
0.0208622338177554
0.021204569402856355
0.0002980345145329237
0.0004034176084744633
0.0006407557356144534
0.0009581165719430944
0.001351138267225965
0.0018188697998036223
0.002360356419994527
0.002974060173190235
0.0036574502424290183
0.004406613607694153
0.005215931999268824
0.006077874977609237
0.006982948129963082
0.007919820143174277
0.008875631960847036
0.009836468831792698
0.010787954338606206
0.011715909585129459
0.012607012813661918
0.013449396987154201
0.014233134378015112
0.014950575218803774
0.015596528498108395
0.01616829281673773
0.01666556130127591
0.01709023477071127
0.01744618178489475
0.0177389833605743
0.017975695664053954
0.018164657450039333
0.018315361741663313
0.018438404564104966
0.01854551792015253
0.018649690271374284
0.01876537531776002
0.018908788963776943
0.019098285970204344
0.019354732270737425
0.019700826315822702
0.020144961286680106
0.02043475982950796
0.0002132636747027188
0.0003140889073877186
0.0005473740951745562
0.0008665989178689742
0.0012674327489786501
0.0017489435784550922
0.00231048402258643
0.002950991359955255
0.003668374259146207
0.004458929253155197
0.005316852254856544
0.006233908919153346
0.007199319518958142
0.008199893887710447
0.009220423920875855
0.010244307398985587
0.011254344095004762
0.012233619836664024
0.01316638241993545
0.014038817429825474
0.014839651135340364
0.015560536798959105
0.016196213618602805
0.01674445744697299
0.01720586495472975
0.017583525550162852
0.017882638607561528
0.018110129244296905
0.01827430643086804
0.018384596140129213
0.018451370630404366
0.01848588562995654
0.018500329785972974
0.018507986390664234
0.018523506084948335
0.018563290567591165
0.018645995080153625
0.01879310217470982
0.01902870499255578
0.019365837647249473
0.019597177920755313
0.00013828084227251978
0.00023197722766150078
0.0004568953454289603
0.000773990061964132
0.0011790304494229856
0.0016712250680069372
0.00225057945009204
0.0029169206055977377
0.003668997175754179
0.004503636034896705
0.005415021748289099
0.0063941895343284545
0.007428812585409936
0.008503341844227822
0.009599516014255155
0.010697207507983105
0.011775517907401284
0.012813994781985074
0.013793822568852608
0.014698848492457712
0.015516337010114581
0.016237396150874828
0.016857071576582647
0.01737415057294893
0.01779074893926421
0.018111768065085552
0.018344307799748757
0.018497108782088115
0.018580079715150313
0.018603946026242914
0.018580039308128665
0.018520233888494553
0.018437028282703657
0.01834376497463224
0.018254981064896838
0.018186886356142462
0.01815796779534879
0.01818974570087702
0.018307093464404848
0.01852820896995728
0.018695556985156014
8.052729718517551e-05
0.00016085326268781453
0.0003718006604283235
0.0006813447765686596
0.0010853226634701845
0.0015834382801673378
0.002176849800295152
0.0028668286427011524
0.003653522904974931
0.004534757858431688
0.005504989688319465
0.006554533063209114
0.007669191205459251
0.008830386169735652
0.010015830688015126
0.011200700470793504
0.012359178674566946
0.013466172698738251
0.014498971027976605
0.015438622678197537
0.016270882006606396
0.016986646623439478
0.017581905273975486
0.01805728247187405
0.018417309068041402
0.018669558081422004
0.018823772740144594
0.018891085087164777
0.018883390758605435
0.018812914398718544
0.018691975897804865
0.0185329513925201
0.01834841480641437
0.018151443075739578
0.0179560708230296
0.01777788216853624
0.017634738170076443
0.017547569727725233
0.017541091822969597
0.01763748751690234
0.01773559178446425
3.932421167808025e-05
0.00010457374559457926
0.0002946345989081332
0.0005895039544534677
0.0009853514105119443
0.0014828460794548489
0.0020848594537747045
0.002794850531252881
0.0036151445507971395
0.004545258841674469
0.005580383841484458
0.006710207188329655
0.007918279315761795
0.009182095286877148
0.010473983587595805
0.011762762165806103
0.013015968363165703
0.01420234341714319
0.015294190435196598
0.016269257519520942
0.01711190777188328
0.017813494422422322
0.018372007920254133
0.01879117175081911
0.019079212144357052
0.019247525182422023
0.019309422385209322
0.01927907980547244
0.01917075675385737
0.01899830386143735
0.01877494754892306
0.018513321481231047
0.018225710778219995
0.01792447924603487
0.01762265879498721
0.017334691611546337
0.017077313838297397
0.016870602667537146
0.016738479917755223
0.016706319571898002
0.01673017999206081
0.000903935379124565
0.0013987546413350448
0.0027387714396892534
0.005688945022207177
0.006910400318578964
0.009605122002772486
0.011015845372962995
0.013770597141407312
0.01503549694041968
0.017177779133307144
0.01801412360006616
0.018681973517837038
0.01918303691374936
0.019525784465278424
0.019723532641868293
0.019792532830203713
0.018060307570406223
0.01766364775654546
0.016200899930948368
0.015953761338451986
0.01575525303278971
1.777302589159669e-05
7.183584471827714e-05
0.00024030719322951536
0.0005184578033333205
0.0020082392333026894
0.003595539829702464
0.004580239772918381
0.008225054140186478
0.01241789331156754
0.016179593802300166
0.019750302085144434
0.01961432903632501
0.01940120063413114
0.01912613208105575
0.018802847766584002
0.018443748678526436
0.017265281379189527
0.016878003649161782
0.016516964846182307
0.015802334458577125
1.3203780070198978e-05
5.387073552003421e-05
0.00019955659854165364
0.00045817311177359996
0.0008271106214095226
0.0013093954228991982
0.0019120732953483803
0.002643855367137697
0.003512430968553362
0.004521746731661022
0.00566937852104316
0.006944330072734675
0.008325668495363779
0.00978241090826379
0.011274930343198252
0.012757862455654665
0.014184135268281498
0.01550943264524326
0.01669626925300315
0.017716959116030096
0.018555064080510098
0.019205285850080713
0.01967208743281197
0.019967511000860194
0.020108690543202353
0.020115474750588655
0.020008438602047315
0.019807418760155845
0.01953059330176822
0.019194051710538708
0.018811765933180426
0.018395869042397765
0.01795716216753298
0.017505794681070923
0.017052090488529854
0.01660751599083592
0.016185820647183657
0.015804340073411496
0.015485577563469006
0.015257180816669606
0.015166063898767552
1.711929038561647e-05
4.457371854546421e-05
0.000168936308121164
0.00040876067145812227
0.000761656024279969
0.001231549441468991
0.0018274343797753828
0.0025605586233043774
0.0034413833273743886
0.004476375560081305
0.005664830806272811
0.006996091748935986
0.008447700969282317
0.009985057440118735
0.01156298683742517
0.013129263055097352
0.014629618818453682
0.016013333756926065
0.017238287728602246
0.01827451745657812
0.019105753830215615
0.019728953370298227
0.02015227048626743
0.020392133415122273
0.020470086183014633
0.020409910934287755
0.02023533976417574
0.019968471949975284
0.01962887079993304
0.019233233875709445
0.018795502121258356
0.01832728167796502
0.017838480122895496
0.017338093938709345
0.016835117206615423
0.016339577799974123
0.015863696255968774
0.01542331784064661
0.015038975555716951
0.014742060886088397
0.014613579568749258
2.70568305635249e-05
4.117122365676093e-05
0.0001432804081340987
0.0003627394384473511
0.0006976457550907603
0.0011529261929352247
0.0017397394568033637