# vtk DataFile Version 2.0
time_10.vtk
ASCII
DATASET UNSTRUCTURED_GRID
POINTS   4141  float 
1.5748628470777042e-06        -1.7814824018548646e-16       0.0                           
0.24999999999999875           1.4871780037052636e-06        0.0                           
0.5000014387616               -1.5184448736401475e-17       0.0                           
0.7499999999999987            1.3312906848914079e-06        0.0                           
1.0000012717408735            1.33738699410246e-16          0.0                           
1.25                          1.140072465141119e-06         0.0                           
1.5000010677063425            2.1735262595708795e-17        0.0                           
1.7500000000000049            9.096224875943298e-07         0.0                           
2.0000008239208955            5.819212378140364e-17         0.0                           
2.2499999999999982            6.395564847353426e-07         0.0                           
2.5000005411623865            1.2930089489610213e-16        0.0                           
2.75                          3.3298983119904505e-07        0.0                           
3.0000002238926027            -3.3763793739800214e-17       0.0                           
3.25                          9.572271705923359e-17         0.0                           
3.4999998750096455            -2.9093753651363616e-17       0.0                           
3.75                          -3.7741983531329603e-07       0.0                           
3.999999493740657             -1.90079060947764e-17         0.0                           
4.25                          -7.695582420619599e-07        0.0                           
4.499999096160228             -7.954546942774798e-17        0.0                           
4.75                          -1.1772322758743748e-06       0.0                           
4.999998683760975             -9.13426456149783e-16         0.0                           
5.250000000000001             -1.598863065057105e-06        0.0                           
5.499998257410426             -3.6855303445876345e-15       0.0                           
5.75                          -2.0354464509708325e-06       0.0                           
5.999997815071697             -2.681632094788706e-17        0.0                           
6.25                          -2.4911681616379403e-06       0.0                           
6.499997351500146             -2.8204470616147234e-16       0.0                           
6.750000000000003             1.5706845449873566e-06        0.0                           
7.000001528315388             1.2225832352290186e-07        0.0                           
7.250000130033383             1.4347362341380631e-06        0.0                           
7.500001382895483             1.4703130932626356e-07        0.0                           
7.750000156157317             1.267775182582491e-06         0.0                           
8.000001204075698             1.7537891493491701e-07        0.0                           
8.250000185350611             1.0636667614614277e-06        0.0                           
8.500000986797065             2.0569788193537058e-07        0.0                           
8.750000215948102             8.196560876917153e-07         0.0                           
9.000000729483515             2.363046120055384e-07         0.0                           
9.250000246301369             5.364772059098082e-07         0.0                           
9.500000433968655             2.6568241372722993e-07        0.0                           
9.750000274972017             2.1792166645708123e-07        0.0                           
10.000000104541325            2.92544820215797e-07          0.0                           
3.0222580280449653e-07        0.2999998668690861            0.0                           
0.24999974303511216           0.30000031933755866           0.0                           
0.5000003268634899            0.2999994877959332            0.0                           
0.7499993570546767            0.30000034132494685           0.0                           
1.0000003482901199            0.2999990901138405            0.0                           
1.249998954142078             0.3000003618380314            0.0                           
1.5000003685064085            0.2999986775580872            0.0                           
1.7499985369913973            0.30000038188777106           0.0                           
2.0000003887142515            0.29999825113897766           0.0                           
2.2499981056648046            0.30000040293734426           0.0                           
2.500000410454777             0.29999780884171157           0.0                           
2.7499976570610825            0.3000004265933805            0.0                           
3.000000435322153             0.2999973454058097            0.0                           
3.249997184892427             0.3000004543286722            0.0                           
3.5000002297004227            0.30000151594702545           0.0                           
3.7500014708975016            0.3000002597778297            0.0                           
4.000000276358313             0.30000137091522444           0.0                           
4.250001315400229             0.30000031214920664           0.0                           
4.500000331138361             0.30000119215225074           0.0                           
4.75000112407802              0.30000037069235785           0.0                           
5.000000391001637             0.300000974510229             0.0                           
5.250000892942822             0.3000004320499487            0.0                           
5.50000045254615              0.30000071637454784           0.0                           
5.750000621542584             0.3000004929267637            0.0                           
6.000000512617324             0.3000004194297333            0.0                           
6.250000312448345             0.3000005506302763            0.0                           
6.5000005689101625            0.30000008717552873           0.0                           
6.749999969508293             0.30000060480346774           0.0                           
7.0000006220202               0.2999997252018092            0.0                           
7.249999598895974             0.3000006536881259            0.0                           
7.500000668478598             0.29999933930487177           0.0                           
7.749999206528889             0.3000006967424454            0.0                           
8.000000710378682             0.2999989358456042            0.0                           
8.249998798148344             0.300000737101636             0.0                           
8.500000750391282             0.29999851828619417           0.0                           
8.749998376101058             0.3000007773881019            0.0                           
9.000000791334124             0.299998086862046             0.0                           
9.249997939537277             0.30000082073110723           0.0                           
9.50000083642202              0.2999976384877591            0.0                           
9.749997484248793             0.3000008703505086            0.0                           
10.000000888786731            0.2999971667952094            0.0                           
1.5372168398987996e-06        0.6000003437107673            0.0                           
0.2500003655049726            0.600001450528878             0.0                           
0.5000014025101828            0.600000413899145             0.0                           
0.7500004402424645            0.6000012955282115            0.0                           
1.0000012360406738            0.600000496417024             0.0                           
1.2500005258836493            0.6000011040864298            0.0                           
1.5000010313620926            0.6000005866134237            0.0                           
1.750000617488812             0.6000008721186978            0.0                           
2.0000007856116238            0.6000006793280277            0.0                           
2.250000709947737             0.6000005991528652            0.0                           
2.500000499430034             0.6000007698419393            0.0                           
2.75000079888578              0.6000002877301873            0.0                           
3.0000001760895625            0.600000854894523             0.0                           
3.250000881864353             0.5999999424896807            0.0                           
3.499999821119533             0.6000009333975397            0.0                           
3.750000957652883             0.5999995702527643            0.0                           
3.99999944115678              0.6000010031492456            0.0                           
4.250001024667422             0.5999991767737344            0.0                           
4.499999041886243             0.6000010659632634            0.0                           
4.750001086019521             0.5999987674148693            0.0                           
4.999998627987717             0.6000011257133209            0.0                           
5.250001145686885             0.599998344831489             0.0                           
5.4999982010062665            0.6000011867837265            0.0                           
5.750001208277682             0.5999979082918491            0.0                           
5.999997759043329             0.6000012540783651            0.0                           
6.25000127873778              0.599997453549949             0.0                           
[...]
POINT_DATA  4141
SCALARS Con float 1
LOOKUP_TABLE default
4.1421716569793053e-07
4.4256260750323984e-07
4.98621722036545e-07
5.638455306760121e-07
6.372079636563845e-07
7.188636392312316e-07
8.089259099524649e-07
9.073697286201331e-07
1.0140173311867771e-06
1.1285365230419124e-06
1.2504445884573056e-06
1.3791176474629063e-06
1.5138039257267635e-06
1.6536425008163004e-06
1.7976788126159657e-06
1.94487909836615e-06
2.0941356223280913e-06
2.244258673865057e-06
2.394259344891934e-06
2.5454539313858327e-06
2.7142425554325027e-06
2.883293213072735e-06
3.0355224416271923e-06
3.1801512553116966e-06
3.3244834210036964e-06
3.468097488890197e-06
3.6112069749334828e-06
3.7542117244953637e-06
3.897774252178154e-06
4.042778342459587e-06
4.19029702954747e-06
4.341577342969372e-06
4.498015172186847e-06
4.661142435642021e-06
4.832608290845237e-06
5.014160520680244e-06
5.207626127642167e-06
5.414852985529354e-06
5.637199702008278e-06
5.86864903976823e-06
6.001871793201365e-06
4.201781647736988e-07
4.491652043281303e-07
5.06334644022117e-07
5.727487198930318e-07
6.473840001535776e-07
7.303723079828861e-07
8.2180442940652e-07
9.216314256421826e-07
1.029652050225174e-06
1.145511410603643e-06
1.2687060958388165e-06
1.3985954751007624e-06
1.5344179488959283e-06
1.6753129228150699e-06
1.8203478421880236e-06
1.968553718429589e-06
2.1189816345147843e-06
2.2708809458435025e-06
2.4239883804536825e-06
2.5820127755749125e-06
2.741539621733664e-06
2.898155371043039e-06
3.0500956245764627e-06
3.199338172828145e-06
3.345284961388215e-06
3.489621480294615e-06
3.6329658054423538e-06
3.7760050124225453e-06
3.919538357745914e-06
4.0645330231777675e-06
4.21211894782158e-06
4.363585846465585e-06
4.520366140604285e-06
4.684024021672801e-06
4.856237906467316e-06
5.038783602545897e-06
5.233513604025592e-06
5.44229968378771e-06
5.666515884035328e-06
5.900243875629618e-06
6.034933388591566e-06
4.1683260674379094e-07
4.458164932788607e-07
5.0311983356712e-07
5.69833887581753e-07
6.449109314591485e-07
7.284739881576464e-07
8.206012010464537e-07
9.212305797566935e-07
1.0301476249106177e-06
1.1469850765295877e-06
1.2712294070394339e-06
1.4022342800654163e-06
1.539242396299442e-06
1.6814144149642025e-06
1.8278736325529435e-06
1.9777702406301133e-06
2.1304029767405056e-06
2.285358329092916e-06
2.443154652630528e-06
2.5996692830139213e-06
2.7492782787511495e-06
2.898360140023015e-06
3.0515964654769777e-06
3.2025539380753593e-06
3.3503895958237906e-06
3.4955605789163596e-06
3.6390329983849094e-06
3.7816792355724552e-06
3.924440910077099e-06
4.068370608003264e-06
4.214660998329256e-06
4.364645415797303e-06
4.519798528734061e-06
4.68172060513965e-06
4.852130504367056e-06
5.032847301430531e-06
5.225771499323007e-06
5.43282887839336e-06
5.655460124920227e-06
5.8877788960858505e-06
6.021708323111888e-06
4.1103835949829845e-07
4.400794281972846e-07
4.976333687114019e-07
5.648454392240518e-07
6.406592328325265e-07
7.251786764580167e-07
8.184618372168849e-07
9.204238425130146e-07
1.0308269006705254e-06
1.149280168261327e-06
1.2752480569629561e-06
1.4080656594283164e-06
1.5469617916934533e-06
1.691091209993719e-06
1.8395771551011363e-06
1.991563045169036e-06
2.146243234373141e-06
2.302865888431632e-06
2.4595725399694404e-06
2.6140173414683592e-06
2.765990055348812e-06
2.9162467262204264e-06
3.065877719163074e-06
3.2152686712082133e-06
3.3625213756392775e-06
3.5073090519196e-06
3.6500603514255327e-06
3.7915611444785058e-06
3.932760034176445e-06
4.0747508115308075e-06
4.2187737655851284e-06
4.3662131304813025e-06
4.518592687506306e-06
4.677570368213095e-06
4.844925128788217e-06
5.022545107079509e-06
5.212409242236838e-06
5.416532827863564e-06
5.636457556768635e-06
5.86646413298899e-06
5.999267708318655e-06
4.028432413386311e-07
4.3196768440917206e-07
4.89890651500509e-07
5.578194833296848e-07
6.34682282859172e-07
7.205574268086097e-07
8.154728923587423e-07
9.19311113200153e-07
1.0317988074992641e-06
1.1525088830154108e-06
1.2808675229727625e-06
1.4161704920211824e-06
1.5576048491463606e-06
1.7042758336462851e-06
1.8552372876863168e-06
2.0095074962945456e-06
2.1660560623305855e-06
2.323600011246248e-06
2.48068968609246e-06
2.6361179843083184e-06
2.7892039881807496e-06
2.9402078072267396e-06
3.0895670932251253e-06
3.237149773140554e-06
3.3827203183453866e-06
3.525912784884332e-06
3.6669144058177058e-06
3.806322606377877e-06
3.945018166906442e-06
4.084086467134663e-06
4.224793232393583e-06
4.368564733259614e-06
4.516982659476236e-06
4.671771387360078e-06
4.834788739986548e-06
5.008015300467259e-06
5.1935354236424234e-06
5.393488122701715e-06
5.609560834628771e-06
5.8362601619206555e-06
5.967433796311298e-06
3.92169234140327e-07
4.214154466022092e-07
4.798387338108057e-07
5.487172362641402e-07
6.269565460639405e-07
7.14600814490245e-07
8.116381251447749e-07
9.179074439906193e-07
1.0330879266034582e-06
1.1567013133100872e-06
1.2881188376182676e-06
1.4265757318421443e-06
1.5711901764000694e-06
1.7209848061343801e-06
1.8749064997499522e-06
2.031836052266326e-06
2.190565589719555e-06
2.349821784920362e-06
2.5083547363914195e-06
2.665115226393519e-06
2.8194905782543735e-06
2.971250175691841e-06
3.120371401897643e-06
3.2668470883606153e-06
3.4105554619791185e-06
3.5515007018148026e-06
3.689898080229102e-06
3.826286227313036e-06
3.961496278190996e-06
4.096601168589991e-06
4.232884379781431e-06
4.371813838137221e-06
4.515032140035128e-06
4.664340404110611e-06
4.8216915214314625e-06
4.989178428980851e-06
5.16901779798393e-06
5.3635026923479844e-06
5.574505029865043e-06
5.796830330808877e-06
5.925838679273416e-06
3.78936160248411e-07
4.08349579973685e-07
4.6742098337041545e-07
5.374993645720274e-07
6.174597620813047e-07
7.073032392472971e-07
8.069687408846668e-07
9.162400019853009e-07
1.0347377627896143e-06
1.1619179718050564e-06
1.2970812789307085e-06
1.4393837195098544e-06
1.5878538945672329e-06
1.741414200795101e-06
1.8988975027560728e-06
2.0590662711180705e-06
2.220635759250315e-06
2.382320648051032e-06
2.542919238009633e-06
2.701430372438105e-06
2.857126524611549e-06
3.0095693181598015e-06
3.158532661429124e-06
3.303905960334107e-06
3.4456802854114677e-06
3.5839658163754397e-06
3.7190847300453095e-06
3.851605941079262e-06
3.982365898683276e-06
4.1124493715510435e-06
4.243168927586116e-06
4.37604154071425e-06
4.512778389818211e-06
4.655269242441657e-06
4.8055767663614976e-06
4.965922819878858e-06
5.138681507972331e-06
5.326328879364297e-06
5.530961999601242e-06
5.7477548037477335e-06
5.874007756000746e-06
3.630691401053528e-07
3.927032701602729e-07
4.5258606462881483e-07
5.241315145646528e-07
6.061759959360539e-07
6.986673244764633e-07
8.01485367095845e-07
9.143502780798521e-07
1.0368111930974323e-06
1.1682480662165175e-06
1.3078754761970152e-06
1.4547558564563265e-06
1.6078142764467847e-06
1.7658600361797097e-06
1.9276102950529897e-06
2.0917213730689618e-06
2.2568264647668363e-06
2.421592624337741e-06
2.5847906320334804e-06
2.745366989234973e-06
2.9024987024493577e-06
3.0556052448692697e-06
3.204325471841758e-06
3.348486531265752e-06
3.4880838908574734e-06
3.62329702631689e-06
3.754514601952486e-06
3.8823654505803354e-06
4.00772690583002e-06
4.131724304377146e-06
4.2557175574753115e-06
4.381287613139653e-06
4.510225130531362e-06
4.644519908742967e-06
4.7863565891230455e-06
4.938105079481384e-06
5.102316426133542e-06
5.281678670898196e-06
5.478546982180663e-06
5.688540535395594e-06
5.811382474476875e-06
3.44514637796943e-07
3.744286435778958e-07
4.352988047504507e-07
5.085938856907719e-07
5.931004525165665e-07
6.887040431320159e-07
7.952175515804596e-07
9.122875038496075e-07
1.0393839277871418e-06
1.1757987744527089e-06
1.3206499207057785e-06
1.4728919527354575e-06
1.631333203833666e-06
1.7946580626949552e-06
1.961458885249503e-06
2.130271844320895e-06
2.299627104102601e-06
2.4681033187008182e-06
2.634390728577901e-06
2.7973494107323012e-06
2.956052942086054e-06
3.109810586842089e-06
3.2581653334115686e-06
3.4008876714190117e-06
3.5379673651911316e-06
3.6696152507004107e-06
3.796276754164135e-06
3.918640350935046e-06
4.037644047406703e-06
4.154473257446901e-06
4.270555364722861e-06
4.387548373307251e-06
4.507335596327857e-06
4.632017922418612e-06
4.763913335786997e-06
4.905553710818012e-06
5.05968412443984e-06
5.229226709248337e-06
5.416832468437625e-06
5.618638005125995e-06
5.737340731779006e-06
3.2325777618353973e-07
3.535135439928236e-07
4.155533597149254e-07
4.908883721226682e-07
5.782436956785047e-07
6.774345243801866e-07
7.881986212109867e-07
9.101030535165452e-07
1.0425316611521432e-06
1.1846801904803022e-06
1.3355592707651694e-06
1.494003077352936e-06
1.658687798433008e-06
1.8281566462241592e-06
2.000856818011632e-06
2.1751826841602267e-06
2.3495283617835398e-06
2.5223484316992566e-06
2.6922153794836395e-06
2.8578768479287455e-06
3.0182972360565243e-06
3.172686184781911e-06
3.3205096179220486e-06
3.461492434051252e-06
3.5956168884620537e-06
3.7231211794234477e-06
3.844501813813855e-06
3.9605101823121896e-06
4.0721569844859525e-06
4.180704384789909e-06
4.287660150154491e-06
4.394773757814042e-06
4.504030203667131e-06
4.6176510482457685e-06
4.738096494768159e-06
4.868069368512415e-06
5.010521590279103e-06
5.168630012343897e-06
5.345364564385878e-06
5.53746214885358e-06
5.651211155707243e-06
2.9934645282663146e-07
3.3000087397334754e-07
3.93386861862626e-07
4.7104701285182576e-07
5.616341252130127e-07
6.648849410328716e-07
7.804573318723319e-07
9.078364927457407e-07
1.0463147697013106e-06
1.1949868157333934e-06
1.3527456493419388e-06
1.518292256035967e-06
1.6901521233874788e-06
1.8667055538289407e-06
2.046226988287296e-06
2.2269361237419065e-06
2.4070575257093234e-06
2.5848826335664757e-06
2.7588353897124827e-06
2.9275269137821367e-06
3.0898035278031145e-06
3.244779296450683e-06
3.3918535000804736e-06
3.53071769315536e-06
3.6613561785445383e-06
3.784040837358017e-06
3.899325654333245e-06
4.008036839161508e-06
4.11126895122556e-06
4.2103724113249645e-06
4.3069509944851385e-06
4.4028532270930615e-06
4.50017554992175e-06
4.6012638141370615e-06
4.708723703168173e-06
4.825433290382844e-06
4.954558825900804e-06
5.0995397162642545e-06
5.2636912512545154e-06
5.444425109674307e-06
5.552319047242234e-06
2.729150938735006e-07
3.0401060170480965e-07
3.6889457933866283e-07
4.4914088102028234e-07
5.433191816143662e-07
6.510819976533529e-07
7.720074237922685e-07
9.054980818204136e-07
1.050757295335328e-06
1.2067736935295296e-06
1.372315579472633e-06
1.5459347708854887e-06
1.7259847231615322e-06
1.910652913444748e-06
2.0980055122718e-06
2.286048875483477e-06
2.4727937753578645e-06
2.6563316034056206e-06
2.8349005859833147e-06
3.0069536679608677e-06
3.1712073731066404e-06
3.326681314472757e-06
3.4727181367333225e-06
3.608991774644441e-06
3.7355058768191543e-06
3.852583291525629e-06
3.960852500325989e-06
4.061231801320782e-06
4.154914762131792e-06
4.243357133878461e-06
4.32826702485046e-06
4.411602219780639e-06
4.495572671747808e-06
4.582647811813733e-06
4.675577363384477e-06
4.777410806414131e-06
4.891525127092861e-06
5.021626026824483e-06
5.17138677555944e-06
5.338967890922258e-06
5.44001829400989e-06
2.442143542174025e-07
2.757645549283274e-07
3.422465995398854e-07
4.2528633905732356e-07
5.233624805895211e-07
6.360415904086258e-07
7.6282695956383e-07
9.030462704645431e-07
1.0558189747304564e-06
1.2200288267124247e-06
1.3943119770230023e-06
1.577054496188801e-06
1.7664103794623493e-06
1.960335785126146e-06
2.1566448626090943e-06
2.3530779562512965e-06
2.547383022068103e-06
2.737401182553299e-06
2.9211488376579603e-06
3.0968934821812682e-06
3.263209995385835e-06
3.4190257478784203e-06
3.5636400392852254e-06
3.696731577143965e-06
3.818349816278298e-06
3.9288972140028545e-06
4.029105581011225e-06
4.120008282238247e-06
4.202922020663731e-06
4.27942249125689e-06
4.3513357928969405e-06
4.4207324729989914e-06
4.4899342287261385e-06
4.561529298835912e-06
4.638399561029839e-06
4.723752069973835e-06
4.821163332234224e-06
4.934597397804006e-06
5.068086141910667e-06
5.220606319824276e-06
5.31373915661731e-06
2.1364333464004281e-07
2.456119455297176e-07
3.137022862364557e-07
3.996497128957695e-07
5.018377982139409e-07
6.197528654964563e-07
7.528358565759288e-07
9.003555676725482e-07
1.0613601526480043e-06
1.234636147169641e-06
1.4186822872106227e-06
1.611698258523491e-06
1.8116042128714997e-06
2.0160764440411583e-06
2.2226168786727357e-06
2.428635129563479e-06
2.6315512537140738e-06
2.8288969920341187e-06
3.0184225650039232e-06
3.1981762465218284e-06
3.3665840314135095e-06
3.522484071745466e-06
3.6651564449447183e-06
3.794316425959711e-06
3.910099246881004e-06
4.01302817059342e-06
4.103976283756582e-06
4.1841314540894935e-06
4.254956848826082e-06
4.318172507721385e-06
4.3757304148210094e-06
4.429817621217257e-06
4.482860283753389e-06
4.5375521324117545e-06
4.596883470788588e-06
4.664198730386321e-06
4.7432459921804304e-06
4.838226261289017e-06
4.953518945455967e-06
5.0889811442224166e-06
5.173049135541227e-06
1.8177964508784794e-07
2.1405280298461245e-07
2.836218644274098e-07
3.7244461755888895e-07
4.78815744786718e-07
6.021540852034734e-07
7.418604436961016e-07
8.971749302854243e-07
1.0670978833932386e-06
1.2503332577798488e-06
1.4452373617986115e-06
1.6498033897773073e-06
1.8616706332223281e-06
2.0781725579020365e-06
2.296419237020807e-06
2.513403769800662e-06
2.7261312652825603e-06
2.931752279502249e-06
3.127689454625382e-06
3.3117442369169987e-06
3.4821783990779495e-06
3.637761376896696e-06
3.7777855938499647e-06
3.9020546409887755e-06
4.010843795727719e-06
4.104857171817708e-06
4.185164046066285e-06
4.253149410101752e-06
4.31046381621809e-06
4.358989412916554e-06
4.400818876272412e-06
4.4382509833431425e-06
4.473805496411258e-06
4.510252303477099e-06
4.550665582849989e-06
4.598482068138492e-06
4.657586886233812e-06
4.732377293936501e-06
4.8275572018035965e-06
4.943908621166711e-06
5.0177141810816835e-06
1.494031748494071e-07
1.8175738628516987e-07
2.5247348336436903e-07
3.4392949453305975e-07
4.5434721588291665e-07
5.831025453592313e-07
7.29596139708785e-07
8.93080201414126e-07
1.0725521717355034e-06
1.2666550392150781e-06
1.4736075263666684e-06
1.6911654059367098e-06
1.9166294041895164e-06
2.1469030744865705e-06
2.378596830437335e-06
2.6081707173762925e-06
2.832103738483643e-06
3.0470661303733444e-06
3.2500842180981395e-06
3.438673784602838e-06
3.6109317411147017e-06
3.7655864587596435e-06
3.902000937143472e-06
4.020135538988813e-06
4.120494335638293e-06
4.204034966487534e-06
4.272096846229604e-06
4.326322286718818e-06
4.368589386151281e-06
4.400970854434722e-06
4.425705523227704e-06
4.4451974429771805e-06
4.462037350178048e-06
4.479039273376904e-06
4.49931001770062e-06
4.526329519906686e-06
4.564057873673364e-06
4.617038423193401e-06
4.690252939581012e-06
4.785447147338689e-06
4.847767489480195e-06
1.1750862545270606e-07
1.4956940440876774e-07
2.208263824666674e-07
3.1438868890234595e-07
4.2843807122932033e-07
5.623410089332958e-07
7.155544672000988e-07
8.874166177155945e-07
1.07698176257609e-06
1.282877134034386e-06
1.5031882760516344e-06
1.7353996605707822e-06
1.9763951857413754e-06
2.222529516541026e-06
2.469767876379326e-06
2.7138784061939576e-06
2.9506588526689047e-06
3.1761732842188067e-06
3.3869633794930805e-06
3.5802189982404254e-06
3.7538838351288876e-06
3.906700301541561e-06
4.038187660016753e-06
4.148575841261598e-06
4.2386997226625824e-06
4.309888783350867e-06
4.363839902581463e-06
4.402525550008017e-06
4.428100216355319e-06
4.442850916365324e-06
4.4491674946128475e-06
4.4495441315941144e-06
4.446604922718809e-06
4.443164397078767e-06
4.44230139375649e-06
4.447466983218786e-06
4.462615795059169e-06
4.492352121008537e-06
4.541887393485279e-06
4.61395210432824e-06
4.663582582112201e-06
8.729729624261962e-08
1.1849339163546736e-07
1.89332106763371e-07
2.8412268256986425e-07
4.010312035746893e-07
5.394573076952163e-07
6.990151858644291e-07
8.792337861097747e-07
1.079322260850097e-06
1.2979508809850311e-06
1.533091172397662e-06
1.7819123009309409e-06
2.04077788404141e-06
2.3053323358125543e-06
2.5706917179868816e-06
2.8317096830265316e-06
3.0832967268314606e-06
3.320738612028046e-06
3.5399840394925024e-06
3.7378605489937317e-06
3.912193830197464e-06
4.061832494120183e-06
4.1865906596552486e-06
4.287119414903955e-06
4.36474778053863e-06
4.4213096926336284e-06
4.458982578122008e-06
4.480147004463256e-06
4.487286511467651e-06
4.4829247198676915e-06
4.46959353745387e-06
4.4498461085569065e-06
4.426298468669151e-06
4.4016979594330876e-06
4.379024442460712e-06
4.361614462410223e-06
4.3533187604558034e-06
4.358680899101928e-06
4.383013694954871e-06
4.430139504714854e-06
4.465953898701271e-06
6.010436674737156e-08
8.964044592549198e-08
1.587219626556756e-07
2.53448100405175e-07
3.719690272134175e-07
5.138382740410851e-07
6.789700967551384e-07
8.672343913882969e-07
1.0781219018678857e-06
1.3104474647681149e-06
1.5620958972666173e-06
1.8298786829846462e-06
2.109496218370133e-06
2.395663676845125e-06
2.682359895274031e-06
2.963219343651302e-06
3.2319688239321223e-06
3.4828934845071053e-06
3.7112131090283906e-06
3.913370744587345e-06
4.08714785115443e-06
4.2316612909362954e-06
4.347221469045804e-06
4.435129632391083e-06
4.497418415070225e-06
4.53661275431237e-06
4.555499773674377e-06
4.5569665377210756e-06
4.543869909846245e-06
4.518974310626044e-06
4.484931522332537e-06
4.444306505392277e-06
4.3996357290963505e-06
4.353522755577566e-06
4.308759228919523e-06
4.268476374116619e-06
4.236319742696801e-06
4.216647600027855e-06
4.214685530255157e-06
4.235098235159019e-06
4.256029541828957e-06
3.7524542054938735e-08
6.426887619968236e-08
1.2980927436334826e-07
2.2263710562889287e-07
3.4097466131655816e-07
4.846944868249956e-07
6.541731254512723e-07
8.498154963086295e-07
1.0715884531718536e-06
1.3185903292753502e-06
1.588692642956641e-06
1.8782960505411799e-06
2.182267799453546e-06
2.4940813986215465e-06
2.806183475813315e-06
3.1105418959965666e-06
3.3992993540734735e-06
3.6654264342901914e-06
3.903262505187414e-06
4.1088635788898746e-06
4.280125520065182e-06
4.416688874438492e-06
4.519678619816935e-06
4.591361322898114e-06
4.634758323415033e-06
4.653303954460196e-06
4.650558577447806e-06
4.6299951609943285e-06
4.59487581462448e-06
4.54818680946739e-06
4.492647117027913e-06
4.430753266908781e-06
4.364873021677768e-06
4.297363306186035e-06
4.230719909416086e-06
4.167761484031664e-06
4.111830879201512e-06
4.067043837954296e-06
4.038409195313212e-06
4.0313001992984735e-06
4.0363178010572614e-06
3.154323052475276e-07
4.603515324962041e-07
8.370715516975091e-07
1.624812566766008e-06
1.939172632752465e-06
2.6112594745461178e-06
2.9512669825632484e-06
3.5895314209446257e-06
3.869557489954964e-06
4.3194254228011684e-06
4.48357767639736e-06
4.607264494030371e-06
4.69284224410961e-06
4.743885512934843e-06
4.7646583241885905e-06
4.759658109087251e-06
4.320844247918893e-06
4.233991567742768e-06
3.91914133273268e-06
3.866070912433802e-06
3.823172880342426e-06
2.1864064457883734e-08
4.624259997310099e-08
1.0791789793651475e-07
1.9805133430451086e-07
6.338555069146948e-07
1.0705962421162967e-06
1.3339000221846906e-06
2.2707116991063686e-06
3.2806098387359237e-06
4.11421306094696e-06
4.7332677824709786e-06
4.689535614459991e-06
4.632056925686071e-06
4.563943307643099e-06
4.487865402195432e-06
4.406137473942419e-06
4.1476828210436175e-06
4.064329170484665e-06
3.986887712210025e-06
3.833380369720757e-06
1.3914899365039215e-08
3.515398252528222e-08
9.187365389591946e-08
1.7786442558438658e-07
2.9194055009230265e-07
4.347541307897177e-07
6.078502130679114e-07
8.129636828853863e-07
1.0512873532704974e-06
1.3227534241355184e-06
1.625390611278364e-06
1.9548513253989145e-06
2.3042282690609553e-06
2.664256211730391e-06
3.023940520290142e-06
3.3715467608490383e-06
3.695790515924533e-06
3.986988385566174e-06
4.237939425404769e-06
4.444392847597597e-06
4.605051452613313e-06
4.721207939364507e-06
4.7961250639787285e-06
4.834349197591271e-06
4.8410448084684006e-06
4.821468494066803e-06
4.78057857854212e-06
4.722810407813628e-06
4.6519697181756706e-06
4.57123333421884e-06
4.483218607362974e-06
4.3900983284425895e-06
4.293747630950338e-06