# vtk DataFile Version 2.0
time_10.vtk
ASCII
DATASET UNSTRUCTURED_GRID
POINTS   4141  float 
7.407538661724008e-05         9.90041418899641e-18          0.0                           
0.25000000000000033           7.05876356797858e-05          0.0                           
0.5000685773053004            2.437001660918342e-17         0.0                           
0.75                          6.394889965941923e-05         0.0                           
1.0000613060319612            -7.174483790954598e-18        0.0                           
1.25                          5.5316091876957665e-05        0.0                           
1.500051956764368             3.733018452099928e-17         0.0                           
1.75                          4.4495529535654875e-05        0.0                           
2.0000403947859153            1.9947233883059953e-16        0.0                           
2.25                          3.1472613555200535e-05        0.0                           
2.5000266659249455            4.6915879887021685e-17        0.0                           
2.75                          1.642114071999101e-05         0.0                           
3.000011026072259             -3.6677671547641255e-17       0.0                           
3.25                          -4.422040776933013e-17        0.0                           
3.4999935520505896            -1.3825760269518015e-16       0.0                           
3.75                          -1.9382741564308907e-05       0.0                           
3.999974009358432             -3.5188338009081126e-17       0.0                           
4.25                          -3.95435115392401e-05         0.0                           
4.499953516503665             3.47580232763764e-17          0.0                           
4.75                          -6.0673069746877375e-05       0.0                           
4.999932081516809             3.910239127933382e-17         0.0                           
5.25                          -8.27123528301281e-05         0.0                           
5.499909732749484             9.838359117173666e-17         0.0                           
5.75                          -0.00010572444590479108       0.0                           
5.999886354496728             -5.819123408035938e-18        0.0                           
6.25                          -0.00012993403777798572       0.0                           
6.499861668603617             -8.378377183530631e-16        0.0                           
6.75                          7.382453326447265e-05         0.0                           
7.000072166904966             4.857590772841815e-06         0.0                           
7.250005316547034             6.833415856088546e-05         0.0                           
7.5000661273319675            6.307155479854163e-06         0.0                           
7.750006833852789             6.106578513725081e-05         0.0                           
8.0000581900839               7.935609983964136e-06         0.0                           
8.250008504426651             5.171245074736051e-05         0.0                           
8.500048102641792             9.66196206584155e-06          0.0                           
8.750010244379554             4.013805113256766e-05         0.0                           
9.000035788591719             1.1401488241853598e-05        0.0                           
9.25001197055426              2.638419686584775e-05         0.0                           
9.5000213466354               1.3076403342883249e-05        0.0                           
9.750013607743458             1.0652137377772677e-05        0.0                           
10.000004995654125            1.4615447996496811e-05        0.0                           
1.5203172856382555e-05        0.2999930162262159            0.0                           
0.24998671631748293           0.300016226999237             0.0                           
0.5000166691397377            0.2999736570083011            0.0                           
0.7499669388111405            0.300017528728941             0.0                           
1.0000179470227002            0.29995316328248833           0.0                           
1.2499461163803287            0.30001876706590874           0.0                           
1.5000191730195753            0.29993172042209254           0.0                           
1.7499243728685294            0.30001998971680777           0.0                           
2.0000204062382387            0.2999093679397987            0.0                           
2.249901700123187             0.30002127078218754           0.0                           
2.5000217248893017            0.2998859919692773            0.0                           
2.7498779288155317            0.3000226912963911            0.0                           
3.0000232088744556            0.2998613134893151            0.0                           
3.249852728246486             0.3000243242428219            0.0                           
3.5000088341900493            0.3000714227488               0.0                           
3.7500696060456695            0.3000106186197711            0.0                           
4.000011588368818             0.3000654026415423            0.0                           
4.250062986716072             0.3000136596496483            0.0                           
4.50001474994288              0.30005746781795073           0.0                           
4.750054347790498             0.30001700898751293           0.0                           
5.000018164910376             0.30004736069997645           0.0                           
5.250043489982588             0.3000204977415586            0.0                           
5.500021662465002             0.3000350010075778            0.0                           
5.750030391222297             0.30002396051738955           0.0                           
6.000025084042911             0.30002047273369115           0.0                           
6.250015177520555             0.3000272622322775            0.0                           
6.500028317080304             0.3000039281491798            0.0                           
6.749998010090966             0.30003042614966047           0.0                           
7.000031449580322             0.29998564141483575           0.0                           
7.249979203709968             0.30003332743822947           0.0                           
7.500034207097532             0.2999658964294709            0.0                           
7.7499590566924               0.30003590204746183           0.0                           
8.000036726357466             0.299945049588033             0.0                           
8.249937892846805             0.3000383514786431            0.0                           
8.50003916270184              0.2999232844166018            0.0                           
8.749915831122818             0.3000408112494722            0.0                           
9.00004166077672              0.2999006062375167            0.0                           
9.24989282003599              0.3000434412473583            0.0                           
9.500044384219503             0.29987684756574173           0.0                           
9.749868634251253             0.3000464034144355            0.0                           
10.000047489344045            0.2998516726429273            0.0                           
7.18155012426328e-05          0.6000132088088334            0.0                           
0.25001450876945575           0.600068378056822             0.0                           
0.5000663876883896            0.6000173505492978            0.0                           
0.7500188791425159            0.6000617835015342            0.0                           
1.0000591433908215            0.6000221107784158            0.0                           
1.250023795424706             0.600053137681286             0.0                           
1.5000497591181734            0.6000272541137003            0.0                           
1.750029008775603             0.6000422352187256            0.0                           
2.0000380902646477            0.6000325221958375            0.0                           
2.2500342638066573            0.6000290497289837            0.0                           
2.5000241648895134            0.6000376800179427            0.0                           
2.750039343768875             0.6000136990856805            0.0                           
3.0000081327674217            0.6000425753379628            0.0                           
3.25004414736627              0.5999964003237052            0.0                           
3.499990267183478             0.6000471810989868            0.0                           
3.7500486180441435            0.5999775132211428            0.0                           
3.9999709110394357            0.6000513265791307            0.0                           
4.250052616202312             0.5999573175353593            0.0                           
4.499950348427265             0.6000551095928995            0.0                           
4.750056328518543             0.5999361030683523            0.0                           
4.999928835006888             0.6000587509713743            0.0                           
5.250059971924614             0.5999140117943744            0.0                           
5.499906451280475             0.6000624794509135            0.0                           
5.750063784965625             0.5998910017124988            0.0                           
5.999883093515537             0.6000665460979588            0.0                           
6.250068019310179             0.5998668461767566            0.0                           
[...]
POINT_DATA  4141
SCALARS Con float 1
LOOKUP_TABLE default
0.0006274523933267398
0.0006971313739797544
0.0008341050257309198
0.0009958750013110364
0.0011805801174326468
0.001389044701513197
0.0016219327132019092
0.0018795116777585877
0.002161612441233837
0.0024676183123507494
0.0027964709375599313
0.003146690604089709
0.003516407730688617
0.003903399827852318
0.004305124406308729
0.004718730956922752
0.005141044907861959
0.0055685265032667415
0.005998323083394146
0.006437786012361004
0.0069538577511771985
0.007475026716137641
0.007931607658678898
0.00836497094954973
0.008802443659480179
0.009242222640458502
0.009684557026074975
0.010130205611280056
0.010580761736037357
0.011038479266817468
0.011506182774741186
0.011987191657128948
0.012485257262201219
0.013004504794724349
0.013549376152567285
0.014124570735110592
0.014734977035518165
0.01538551141824734
0.016079691690037482
0.0167993744695898
0.017214249555403384
0.000639187064306826
0.0007106306264522072
0.0008505038729145245
0.001015452315708375
0.001203619752154048
0.0014157737482525291
0.0016525193150470929
0.0019140607577255884
0.0022001648295589898
0.002510153208556877
0.0028429126073209283
0.003196921063729425
0.0035702892833902166
0.003960816352275454
0.004366062022610172
0.004783454132447141
0.005210481898243811
0.005645369492583466
0.0060884056072532345
0.0065544263958242435
0.007031791741844497
0.007503701692343322
0.007962734106716003
0.008415208782053435
0.00886020076647138
0.00930385207611198
0.009748048092406307
0.010194670502257608
0.010645834606295257
0.01110410148355033
0.011572495797770116
0.012054485886193012
0.012553945207646227
0.013075105964206931
0.013622507591007832
0.014200940130900355
0.01481537640120733
0.015470812033438877
0.016170808983459004
0.016897491410617794
0.017316895656587974
0.0006325296562936281
0.0007038416315198142
0.0008438472862127885
0.0010093212771171472
0.0011983727538828187
0.001411760071029925
0.0016500707636332562
0.0019134895429255374
0.0022017637068892713
0.0025141992276702754
0.0028496764774274394
0.003206686297875046
0.0035833892657275105
0.003977705185961048
0.0043874512984364775
0.004810567618512178
0.005245557930638867
0.005692032447550908
0.006152913939832777
0.00661359429840173
0.007050945341895823
0.007491095282899379
0.007954699711632901
0.00841543035545307
0.00886903592149287
0.009317208226330524
0.009763191256355715
0.010209633404833237
0.010659216049218623
0.011114850164766396
0.011579795041204642
0.012057692096915535
0.012552559674091999
0.013068765910166721
0.013610988770423656
0.014184166475248164
0.014793433762837984
0.015443960437324723
0.016139502608290935
0.0168621944741038
0.01727934863841283
0.0006209272033005044
0.0006921953740004031
0.0008324649525945076
0.0009987927972503468
0.0011892969725918843
0.001404712704449277
0.001645597232185465
0.0019120995970057387
0.002203929370310331
0.0025203562045236416
0.0028602301681867545
0.003222024192294685
0.0036039017024131624
0.004003814340304911
0.0044196341914714546
0.004849321615729086
0.005291007895339425
0.005742911052233772
0.006198896724234997
0.006650176236740511
0.007096617561416293
0.007541991380713337
0.007991208532177805
0.008446082807995702
0.00889863032900974
0.009346905854562835
0.00979195458290287
0.010236026000504056
0.010681799945907403
0.011132328273885541
0.01159103834995947
0.012061745286039824
0.012548646371888827
0.013056299918102018
0.013589591491984488
0.0141536892349906
0.014753982731758913
0.015395921554998818
0.01608355860089247
0.01679948110429557
0.01721332865556819
0.0006045569912228497
0.0006757602664731835
0.0008164284519371659
0.0009839814114016375
0.0011765442548798098
0.001394819924721827
0.0016393196561376023
0.0019101376939316195
0.002206922312484025
0.0025288770569787144
0.002874781823190771
0.0032430340230825386
0.0036317095909267293
0.004038639730596268
0.004461489219337754
0.004897781717446544
0.005344787017691996
0.005798688384303369
0.006254767707887075
0.0067091573103915106
0.007159873496572643
0.007608559081602228
0.008057425778814709
0.008506105320048883
0.008953459925506443
0.00939748736363336
0.009838156283214385
0.010276890277256524
0.010716038273379361
0.011158571869206857
0.011607976233527459
0.012068199865085982
0.012543623473941319
0.013039029555813974
0.013559566845585583
0.014110706478325553
0.014698181949344032
0.01532782868151437
0.01600414114729664
0.016710403742995115
0.01711955371508696
0.00058330965282085
0.0006544501720639734
0.0007956657771955268
0.00096483182304836
0.0011600769563667689
0.001382058643786037
0.0016312254145109057
0.0019075959554853022
0.002210731303605198
0.002539735421889747
0.0028932733106209396
0.0032696054433711693
0.003666635260838047
0.004081961000872144
0.004512911129724382
0.004956532914962361
0.005409457473784895
0.005867925599820731
0.006328129798960635
0.006786869492265695
0.007242495285001336
0.007694668824553689
0.008143655258265759
0.008589535009879619
0.009031629479621675
0.009469453146300122
0.009903071847049744
0.010333618711930656
0.01076317827187966
0.011194609297120567
0.011631411720001638
0.012077646760131575
0.012537883640101315
0.013017157522663225
0.013520929256717376
0.01405504095173391
0.014625657704575657
0.01523911174174664
0.015900485357466295
0.016593959751051077
0.016996827786462262
0.000557099472770968
0.0006281851601207054
0.0007701139570583337
0.0009412993692440725
0.0011398682439044748
0.0013664184484906022
0.0016213188222536918
0.0019044923385046482
0.002215388049102724
0.0025529790784249527
0.002915775740155838
0.003301852150537789
0.0037088828779386677
0.004134182328293023
0.004574737061911435
0.00502722053689198
0.005488041531980383
0.005953481352790869
0.00641999016591727
0.006884619076782859
0.007345282921403894
0.007800803354141747
0.008250589779372467
0.008694246393108764
0.009131497965618173
0.009562255971594512
0.009986986634172934
0.01040689372007216
0.010824020306784069
0.011241202222156153
0.011661989960313458
0.012090577378153507
0.012531745522695847
0.012990816675341972
0.013473612784267244
0.013986412568959636
0.014535897225842087
0.01512900198096836
0.015771522505492668
0.016448740705331144
0.01684356885511127
0.0005258858756606956
0.0005969279682987806
0.0007397445705344037
0.0009133680931685456
0.0011159153604077695
0.0013479099391382708
0.0016096253002126722
0.0019008713872716127
0.0022209648136107952
0.002568722777235014
0.0029424704553113524
0.0033400612180276078
0.003758908170664971
0.004196024619641602
0.004648072180776978
0.005111427622891249
0.005582287483907378
0.006056839299270367
0.006531500701870241
0.007003165417135306
0.007469388468648679
0.007928412699718494
0.00837907181137105
0.008820659649202247
0.009252849048076025
0.009675757951806859
0.010090060864839129
0.010497130159787435
0.010899104924062998
0.011298905410581149
0.011700201609837289
0.012107367590414406
0.012525436335911326
0.01296005939309804
0.01341747008761746
0.013904446498461995
0.014428264635241952
0.014996559506543035
0.015615962347702633
0.016273086817926347
0.016657903258406753
0.0004897138224210754
0.0005607176986102212
0.0007045908473033672
0.0008810693898439723
0.0010882496993449627
0.0013265664921633437
0.001596185004487575
0.001896789732606822
0.0022275509235033125
0.0025871126666211644
0.00297359384479551
0.003384603118215381
0.0038172692202707113
0.004268287925416205
0.004733989482799444
0.005210433214211219
0.0056935389666736835
0.006179258329079265
0.006663771638966529
0.007143679587525062
0.007616142771284702
0.008078947210173645
0.00853049947088531
0.008969790432331402
0.00939637999188133
0.009810417655060306
0.010212706000044426
0.010604766201310553
0.01098888914959044
0.011368152664242119
0.01174641262180297
0.01212827779241349
0.012519079845128697
0.012924844434607848
0.013352264746891395
0.01380867538344911
0.014302017595642258
0.01484071509145681
0.015432354193250987
0.016065124420006478
0.016437705655844657
0.0004487595622101868
0.0005197102704353879
0.0006647774932987956
0.0008445007433720699
0.0010569440481707178
0.0013024399663104991
0.0015810371809893357
0.0018922892834825685
0.002235214520460573
0.0026082752714556815
0.0030093706191639817
0.0034358454565968973
0.0038845199005014363
0.004351742716261342
0.004833472494269441
0.005325390166626507
0.0058230437172362
0.00632201969255619
0.006818126901620403
0.007307568956309209
0.007787082943779219
0.008254029632445502
0.008706438530807714
0.009143025412186421
0.009563202855931952
0.009967100880831888
0.01035559703027586
0.010730350281398304
0.011093825825570988
0.011449305603701
0.011800883811712145
0.012153453213198613
0.012512688150700422
0.012885029181944806
0.01327767096781311
0.013698551971618952
0.01415633749420271
0.014660317242940714
0.015219143035687766
0.015822834289434488
0.01618067288436855
0.0004033830877687062
0.0004742236423336747
0.0006205526406464405
0.0008038433677060859
0.001022115567615736
0.0012755890847251888
0.0015641945387804552
0.0018873585709968258
0.0022439521205295347
0.002632256703106313
0.0030499447127611493
0.0034940797312885616
0.003961142874519266
0.0044470901639010125
0.004947444210675824
0.0054574208361852505
0.005972087116339487
0.006486541825572016
0.0069961035739892225
0.007496488751924339
0.007983962571666108
0.008455453259869293
0.008908628633158973
0.009341942488950419
0.009754662354499385
0.01014688780770712
0.010519564991799712
0.010874496830497696
0.011214347809722846
0.011542641751816057
0.011863754263971767
0.012182903247207662
0.012506141762784187
0.012840356452033894
0.013193272738630704
0.01357346525161888
0.013990365029602688
0.014454187249186245
0.01497474382669972
0.015544142403347642
0.015884423478030527
0.0003541858013004195
0.00042478651359318845
0.0005723200856746825
0.0007593769114547555
0.000983922648030174
0.001246058827536255
0.001545606317825574
0.0018818814852735778
0.002253625905277843
0.002658952417126294
0.003095306864499454
0.003559454444253412
0.004047499143066574
0.004554942590119678
0.005076785334944189
0.00560766927139015
0.0061420548129868385
0.006674421276594547
0.00719947486379108
0.007712347084296808
0.008208768346813286
0.008685206478285903
0.00913896661844166
0.009568255308674323
0.009972215315533564
0.010350939201458022
0.010705468423597887
0.011037783080347347
0.011350786245717111
0.011648286344425987
0.011934981378773662
0.012216449233795446
0.012499147729489698
0.012790427068522106
0.013098555226633397
0.013432754288581398
0.013803239046686863
0.014221184464595004
0.014697633270774215
0.015227036793144825
0.015546627583545216
0.0003020699657199798
0.00037218730214313495
0.0005206689029480563
0.0007114885604357961
0.0009425533135934679
0.0012138487628142345
0.0015251082474812682
0.001875571756684317
0.0022638869634368556
0.0026880249489857027
0.0031452141296999464
0.0036319050782608864
0.004143777910544666
0.004675800502734954
0.0052223408574891906
0.0057773308789495804
0.006334472523878422
0.006887471659172079
0.007430281142220129
0.007957333718380602
0.008463747389193983
0.008945490923400046
0.009399503409178923
0.009823768171941062
0.010217346272384988
0.010580377834477957
0.010914060648276932
0.011220615177955659
0.011503244592732045
0.011766097255953765
0.012014238449594785
0.012253636870290486
0.012491170266877332
0.012734652706732389
0.01299288371541553
0.01327571663458993
0.013594137055674223
0.013960280823307893
0.014386459435568367
0.014869711004208858
0.015165168485844203
0.0002482942186432568
0.00031751799146216347
0.00046639604198899214
0.0006606731459417717
0.0008982026715443917
0.0011788686116512037
0.0015023580474693374
0.0018678917167046028
0.0022740824996630897
0.0027188066808615354
0.0031990969439495793
0.00371107498315635
0.004249940078172515
0.004810024837760561
0.005384922342711601
0.005967680611209008
0.006551051989381452
0.007127778018526793
0.0076908859270535205
0.008233971917330248
0.008751449287409835
0.009238745197104423
0.009692437564464593
0.010110331367955609
0.010491480393133136
0.010836165159459014
0.011145840385721823
0.011423065967082957
0.011671434686002747
0.011895508354024255
0.01210077190164261
0.012293612995999278
0.012481332242062838
0.012672186885066957
0.012875468253148285
0.013101609923164274
0.013362316089904685
0.013670643286658549
0.014040167652183399
0.01447073356078918
0.014738336185718584
0.00019451500735007346
0.00026220431310572243
0.0004105156560583169
0.0006075203739095501
0.0008510378714756192
0.0011408809755517602
0.0014767569942692289
0.001857955684696847
0.002283146691637632
0.002750186613753894
0.0032559522035417988
0.003796225876232306
0.004365656284477643
0.004957809651115084
0.005565317767191776
0.006180117083518336
0.006793761748866083
0.007397783675732136
0.007984066744897742
0.00854520127346753
0.009074788861906954
0.009567675957246623
0.010020105041401182
0.01042978325843266
0.010795877649508477
0.011118952990068789
0.011400871684471129
0.011644676159460228
0.01185447248363611
0.012035331382877369
0.012193219085031695
0.01233496720178768
0.01246828735391921
0.012601833712942311
0.01274531405785414
0.012909646926044172
0.013107154535795206
0.013351722815063418
0.013658140406015457
0.01402924078033985
0.014265050221156084
0.0001427992100989077
0.00020800976831485243
0.0003542471744268372
0.0005526865447685353
0.000801151864314061
0.001099435110381157
0.001447361880010213
0.001844421448958146
0.002289477961148792
0.0027804833430222966
0.0033142244749824797
0.003886140976256747
0.004490244860503896
0.0051191646282455466
0.005764322860150268
0.006416240261635826
0.0070649418539483625
0.007700426917264811
0.008313155333826523
0.008894501796325026
0.009437135840934288
0.009935298237620278
0.010384960325192235
0.010783868807608765
0.011131492064924066
0.011428892966262651
0.011678557445180076
0.01188420792763442
0.012050627422294041
0.012183515078075196
0.012289388311763343
0.012375541386402933
0.012450066007570091
0.012521936350554866
0.01260115906959851
0.012698987963191395
0.012828197236066118
0.013003353517551124
0.01324034633561472
0.013545146481211218
0.01374510917349215
9.558496999356618e-05
0.00015699622456647562
0.00029897466847662093
0.000496850824365202
0.0007485147083787718
0.0010538019783032032
0.0014127951902183462
0.0018253777957367191
0.0022908107873769673
0.0028073119085297825
0.003371682455267861
0.003979028262247973
0.004622619155657021
0.0052939203290752
0.005982811290330052
0.006677983948755603
0.007367485580291595
0.008039349898305317
0.008682245856916066
0.009286072272870793
0.009842437404477516
0.010344983286879408
0.01078953998747377
0.011174119384390974
0.011498777322499727
0.011765384494747568
0.011977350086335685
0.012139339519454565
0.012257020416256967
0.012336862321921728
0.012386006528350292
0.012412215107411157
0.012423902442386147
0.012430249236768548
0.012441397800247146
0.01246872814836006
0.012525219264215374
0.0126258611572521
0.012787508061199456
0.013019355993580181
0.01317943549586696
5.557083069794372e-05
0.00011142112433278586
0.00024616773705987764
0.000440676963359932
0.0006929420524712608
0.0010029167517337143
0.0013711647722295828
0.0017982444867155301
0.0022840996129408586
0.002827460656261082
0.0034253044615331634
0.0040724362253440356
0.004761257464858163
0.0054817730129576095
0.006221865600714718
0.006967830012888082
0.007705118085197066
0.008419208735670978
0.009096494901845232
0.009725077695540475
0.010295377322246214
0.010800506279330107
0.011236391458752751
0.011601670295917656
0.011897413126532622
0.012126737607095098
0.012294381438116836
0.012406290990009646
0.012469269386353466
0.012490712597768612
0.012478448669106182
0.012440685007572448
0.012386062014029213
0.01232380811216667
0.012263990526058054
0.012217858888226935
0.012198280054634426
0.012220277023790405
0.012301254388509486
0.012453990775708936
0.012570389941591426
2.838696410833812e-05
7.355207336962546e-05
0.00019733436090988395
0.00038480978364760764
0.0006340473949215376
0.0009453312551043998
0.0013200208364260895
0.0017597207218434596
0.0022654507448039945
0.002836808453172623
0.003471196870372687
0.0041632013790371585
0.004904213942680052
0.005682390678566899
0.0064829972196406615
0.007289139558780037
0.008082810896676703
0.00884612156131008
0.009562541024200255
0.010217978643176381
0.010801566795382555
0.01130607222100957
0.011727932707818807
0.012066975484687428
0.012325912258775691
0.012509717564918036
0.012624989767695929
0.012679372253083061
0.012681086755126213
0.01263860610864843
0.012560474605775892
0.012455271405018578
0.012331706315026827
0.012198835196201796
0.012066384560821479
0.011945176420404744
0.011847651905032489
0.011788444248610034
0.011784875318112085
0.011852508449924798
0.011921611834727031
1.1236294273934583e-05
4.555448055699635e-05
0.00015395065958096024
0.00032974353078647675
0.0005712629486579803
0.0008793746155805279
0.00125658953888576
0.001706045482594711
0.0022303760147698976
0.0028305601359612585
0.0035048207420620378
0.00424769564407314
0.0050494278310836815
0.005895822499678691
0.006768674361187969
0.007646783228496666
0.008507458589786545
0.009328303618128062
0.010088996796050664
0.010772790343795
0.011367512771142368
0.011865980559618745
0.012265844804073913
0.012568995032687267
0.012780689159985797
0.012908583823953438
0.012961808243742205
0.012950181605185306
0.012883627081065855
0.01277179898085873
0.012623913627523515
0.012448761875026058
0.012254877404191027
0.012050838539850868
0.011845688121166745
0.011649464584389507
0.011473837010834256
0.011332858059917275
0.01124334895276728
0.011223123543186584
0.011241394884716156
0.0005193304928370884
0.0008229502935378075
0.0016610441084776932
0.0035569473351990785
0.004357775356897342
0.00615255181162741
0.00710637455125835
0.008995389498162294
0.009874324198944597
0.011380649344592956
0.011975990579760551
0.012455717074461001
0.012819863003326224
0.013073533143391759
0.013225526748138093
0.013286933034181303
0.012149413643000572
0.01188004415551738
0.010881859291788556
0.010713455368153038
0.01058127078536024
3.985920249513193e-06
3.0936984550944966e-05
0.00012370494349968269
0.0002868211339947147
0.0012018024136722324
0.002205402989406315
0.002837624111123213
0.005228760842846059
0.00806349299977986
0.010675821657992622
0.013269888252409604
0.01318660353739175
0.013048702847176939
0.01286685957338698
0.012650693148355697
0.012408876981684915
0.011608773337824872
0.011344508417387242
0.01109782654672652
0.01061156269275
6.462962921322585e-06
2.475539589759257e-05
0.00010195297282865978
0.00025140259166093906
0.0004719311622805059
0.0007658110472985144
0.0011382582347800626
0.001595978089787088
0.002145449207537918
0.0027911071522181675
0.0035334899010605325
0.004367547960827658
0.005281405794094195
0.006255904588421875
0.007265196741153338
0.008278483692252186
0.00926272153979242
0.010185845788623863
0.011019902078847416
0.01174348800067909
0.012343111548872162
0.012813363836750582
0.013156077622388003
0.013378812582698683
0.013493053779975043
0.013512454466961362
0.01345134930779614
0.013323650096539833
0.013142144548752415
0.012918159290244145
0.012661520204031256
0.012380739989850287
0.012083373376290835
0.011776498972325517
0.01146730754722949
0.011163793617382931
0.010875572243533917
0.010614818692958963
0.010397403197258473
0.01024290439317259
0.010182483752490156
1.3431340208381991e-05
2.29271465490612e-05
8.58123841592555e-05
0.00022232589788546387
0.0004313827388963526
0.0007157595292754159
0.0010818891956701467
0.0015381496300321935
0.002092940137449387
0.00275257114356172
0.0035190504945171743
0.004387980358675834
0.005346928393824161
0.006374714992995714
0.007442008201896568
0.00851339475360198
0.00955073011311801
0.010517180776997145
0.011381128803419299
0.012119135612502389
0.012717454071570591
0.013171998003440238
0.013487051936876548
0.01367321348741939
0.013745087460399565
0.013719145840460602
0.013612007688959454
0.013439238537931528
0.013214655327991813
0.012950058543817295
0.012655290630577607
0.012338525907418126
0.012006718449964912
0.011666160836781164
0.01132313171444968
0.01098463652868425
0.010659240638285012
0.010358098342620362
0.010095753874319588
0.009894312253539105
0.009808142642519974