# vtk DataFile Version 2.0
time_10.vtk
ASCII
DATASET UNSTRUCTURED_GRID
POINTS   4141  float 
0.0001007371817969178         1.2586929421767116e-17        0.0                           
0.2499999999999991            9.573767682640128e-05         0.0                           
0.500092895297117             1.9801399433688065e-17        0.0                           
0.7500000000000003            8.642808855874478e-05         0.0                           
1.0000827710176892            8.479082725448487e-18         0.0                           
1.25                          7.454888875247574e-05         0.0                           
1.5000699678100926            -4.3279827934214764e-17       0.0                           
1.75                          5.98471642675584e-05          0.0                           
2.0000543087727665            7.592276359968876e-17         0.0                           
2.25                          4.22996178833077e-05          0.0                           
2.500035846704259             1.2672017567724044e-15        0.0                           
2.75                          2.2114376314626303e-05        0.0                           
3.00001488251887              5.754210231458262e-17         0.0                           
3.25                          -4.296824627685584e-17        0.0                           
3.4999915708135934            -8.553344798028892e-17        0.0                           
3.75                          -2.548833271604863e-05        0.0                           
3.999965772921508             -4.01160258265616e-17         0.0                           
4.25                          -5.2163640049938704e-05       0.0                           
4.499938647358254             1.8444402074171775e-16        0.0                           
4.75                          -8.014867883370011e-05        0.0                           
4.999910249344282             -2.709537988738677e-17        0.0                           
5.25                          -0.00010936596688731687       0.0                           
5.499880612037877             7.299483551954177e-17         0.0                           
5.75                          -0.00013990142770669564       0.0                           
5.999849583211921             1.3456925891488504e-17        0.0                           
6.25                          -0.00017204211190259937       0.0                           
6.49981681067787              -2.3701530859434114e-16       0.0                           
6.75                          0.00010041513258103501        0.0                           
7.000098026262438             6.966494359005906e-06         0.0                           
7.250007556206466             9.258326038269692e-05         0.0                           
7.500089487960306             8.830010751249461e-06         0.0                           
7.750009507716642             8.246266870113527e-05         0.0                           
8.00007850536724              1.092607598986283e-05         0.0                           
8.250011658648091             6.965401518756574e-05         0.0                           
8.500064749617348             1.314995616018587e-05         0.0                           
8.750013900604324             5.3978964453250624e-05        0.0                           
9.000048119228273             1.539279967251214e-05         0.0                           
9.25001612732136              3.5486613143610935e-05        0.0                           
9.500028735105976             1.755712557946672e-05         0.0                           
9.750018246213562             1.442541256921056e-05         0.0                           
10.000006874086454            1.9560620396569227e-05        0.0                           
2.0292843043164973e-05        0.2999909490697741            0.0                           
0.24998260421542026           0.30002160032213976           0.0                           
0.5000221809021582            0.29996532119967007           0.0                           
0.7499564284388809            0.3000233095291419            0.0                           
1.0000238595946407            0.2999381885325087            0.0                           
1.2499288546429497            0.3000249407485591            0.0                           
1.5000254773624189            0.29990977860177653           0.0                           
1.7499000378265772            0.3000265590689743            0.0                           
2.000027111352002             0.2998801358570097            0.0                           
2.2498699609746975            0.3000282573543683            0.0                           
2.5000288584253147            0.2998491098321457            0.0                           
2.7498384047308875            0.30003013399414474           0.0                           
3.000030814685336             0.2998163468190304            0.0                           
3.2498049530078514            0.3000322755580573            0.0                           
3.500012801490966             0.30009707106096645           0.0                           
3.7500944778614445            0.3000150937138136            0.0                           
4.000016340452621             0.300088557985969             0.0                           
4.2500851932968144            0.300019005228003             0.0                           
4.500020408723455             0.30007757814780406           0.0                           
4.75007330548787              0.30002331795209486           0.0                           
5.0000248070801625            0.3000637962903914            0.0                           
5.2500585549585095            0.30002781335448636           0.0                           
5.500029314902399             0.30004710744775115           0.0                           
5.750040912154318             0.30003227932060855           0.0                           
6.000033729915774             0.30002761978089676           0.0                           
6.250020541254418             0.3000365453642896            0.0                           
6.500037909175755             0.30000554824134185           0.0                           
6.749997675103651             0.30004061301718005           0.0                           
7.000041923366028             0.2999812467641277            0.0                           
7.249972710359469             0.30004435805538665           0.0                           
7.500045508363913             0.29995508063846227           0.0                           
7.749946021260593             0.30004773254913963           0.0                           
8.00004881771627              0.29992746611411975           0.0                           
8.249917982915013             0.3000509634692948            0.0                           
8.500052037240009             0.29989861781196375           0.0                           
8.74988873316702              0.30005422247899055           0.0                           
9.000055348971378             0.2998685327002701            0.0                           
9.249858197970653             0.30005770725522135           0.0                           
9.500058953459945             0.29983699263099234           0.0                           
9.749826087955807             0.3000616128105797            0.0                           
10.00006303729864             0.2998035735395068            0.0                           
9.783597282183036e-05         0.6000191470987405            0.0                           
0.25002081647010166           0.6000929018298613            0.0                           
0.5000900853411309            0.6000244691164073            0.0                           
0.750026435431606             0.6000836491723067            0.0                           
1.0000799952461696            0.6000305950648104            0.0                           
1.2500327645063485            0.6000717513653571            0.0                           
1.500067144593525             0.6000372200144912            0.0                           
1.7500394809975979            0.6000569416522362            0.0                           
2.0000513461217326            0.600044009483205             0.0                           
2.2500462550358704            0.6000391875065886            0.0                           
2.500032638832381             0.6000506618189033            0.0                           
2.750052809012009             0.6000186482016645            0.0                           
3.0000112268882213            0.6000569779377873            0.0                           
3.2500590024114735            0.59999561484135              0.0                           
3.4999874634533503            0.6000629083572036            0.0                           
3.7500647665957674            0.5999705326254097            0.0                           
3.9999617776905816            0.6000682922977836            0.0                           
4.250069979954806             0.5999437623661154            0.0                           
4.499934528013155             0.6000732558884398            0.0                           
4.75007486305148              0.5999156499175909            0.0                           
4.99990601546584              0.60007806620106              0.0                           
5.250079683941772             0.5998863581477891            0.0                           
5.4998763277364775            0.6000830087833795            0.0                           
5.750084739013572             0.5998558230826158            0.0                           
5.999845324270864             0.6000883912853717            0.0                           
6.250090334258199             0.5998237524161317            0.0                           
[...]
POINT_DATA  4141
SCALARS Con float 1
LOOKUP_TABLE default
0.001319322549836612
0.0014448998663541964
0.0016946790611614246
0.001987732174586438
0.002320088881568745
0.002692903220782576
0.0031070876272269797
0.0035628835067031493
0.004059799537834828
0.004596603384471552
0.005171342955422646
0.005781393172434329
0.006423523106317055
0.007093974930130707
0.007788541521334139
0.008502618857131368
0.00923123669028866
0.009968995256180937
0.010711900867451546
0.011466778674024966
0.012316802507750786
0.013177791063993676
0.01396297176657654
0.014711885545039825
0.015466463556851086
0.01622455270562979
0.016987193764649054
0.01775607181193078
0.018534090909062512
0.019325130222654557
0.02013391431928214
0.02096589469009355
0.021827146191290985
0.02272426792905096
0.023664283984954803
0.02465454052704559
0.025702590253032797
0.02681593911004753
0.027999800944243057
0.02922383497150222
0.029926397501675604
0.0013459726396036719
0.0014747158063043021
0.001729765985513923
0.0020285192137618835
0.0023670194557683993
0.002746318728865714
0.0031672258868588586
0.0036298721619813673
0.004133654927057017
0.004677234442190179
0.005258561249049826
0.005874931163552615
0.006523065304828766
0.007199212881930195
0.007899277577713902
0.008618991174795716
0.009354183339567529
0.010101747279648056
0.010860848531956256
0.01165285744841781
0.012459781382686405
0.013256406958339946
0.014035533383253704
0.014810283095531026
0.015574670922186942
0.016337854031497817
0.017102883343809324
0.017872997489649593
0.018651831917115166
0.019443711708094856
0.02025366165629473
0.02108736365989889
0.021951085838750543
0.02285159915254249
0.023796085611731996
0.02479203877064583
0.025847148700123817
0.026969049932719914
0.02816301569336457
0.029399104461983627
0.030109380419633316
0.001333525331494889
0.001462087761045393
0.0017174699650483998
0.002017272816334437
0.0023574643790746997
0.0027390734012419536
0.003162868935473372
0.0036289368880657344
0.004136627075863221
0.00468455518871928
0.005270637967912244
0.005892161425419514
0.0065458848240589965
0.0072281883159904066
0.007935287418881625
0.008663561184015038
0.009410178607864852
0.010173763524131766
0.01095795796828873
0.01174045249238975
0.012494617282108584
0.0132539669784749
0.01404089684079198
0.014823635741234237
0.015598332688880986
0.016366473046198853
0.017132804121020008
0.017901465154481048
0.018676820554297643
0.019463661404422884
0.020267340493674475
0.021093795824618965
0.021949522697424832
0.022841515579658706
0.023777191752810053
0.02476430124654181
0.025810816428534663
0.026924672217000265
0.028111451600870963
0.029341096108127664
0.030047631546086934
0.0013117567980306336
0.0014403207339475435
0.0016963387968488837
0.0019978474651735816
0.002340816983148121
0.0027262224054141445
0.0031547650238141463
0.003626451147843051
0.004140544538274651
0.004695573710212763
0.005289373917327308
0.005919164506418947
0.006581664684574127
0.007273252938069456
0.00799017398786805
0.00872879513316565
0.009485732198707702
0.01025783670932022
0.011035804843277399
0.011808413147357387
0.012574702375438816
0.01333926035561225
0.01410842867992286
0.014883836061528178
0.015655841814657304
0.016422624260683066
0.017185919097647565
0.017949341926394146
0.018717243867642293
0.01949461441667521
0.02028705622892206
0.02110077855488013
0.02194256772018678
0.022819736533014067
0.023740055809564207
0.02471166979727523
0.02574298644220151
0.026842410126349216
0.028016003132946898
0.029234406536804234
0.029935481214307877
0.0012809929816015244
0.0014095564611754335
0.0016665274590207519
0.0019704938095970884
0.0023174164713720973
0.0027081960904453885
0.003143433590173186
0.003623017179611699
0.004146078857467404
0.0047110049765365656
0.005315480192346942
0.005956564076761392
0.006630799069277455
0.007334342875013956
0.008063105029665186
0.00881281066207599
0.00957888995299759
0.010355341766555292
0.011135326145015289
0.011913057665382488
0.012685635994457246
0.013454772167099206
0.014222941527867914
0.014989731879911507
0.01575382747780114
0.016513127068586857
0.017268218763493416
0.018021664563666866
0.018777411757174435
0.01954037599125238
0.020316281268783123
0.02111157282964936
0.02193335485350852
0.022789327841001975
0.023687717420822225
0.024637189635028058
0.02564673991978514
0.026725424723136524
0.0278800436927799
0.02908243751223326
0.029775882145493964
0.0012409693995464365
0.001369577872500248
0.001627857417256846
0.0019350780219928164
0.0022871787911205696
0.0026849576550745336
0.0031288809738442766
0.0036186778752618303
0.004153299552517214
0.004730930095309548
0.005349027627161269
0.006004393129723325
0.006693261584854137
0.007411402515648813
0.008154200468683287
0.008916675516133886
0.00969333398378926
0.010478288293611783
0.011265688391588504
0.012050703723557004
0.01283060286623357
0.013604510399780608
0.014372502499553136
0.015134604601139908
0.01589015536631856
0.016638934718805697
0.017381634682957108
0.018120501834741475
0.01885917885496081
0.01960248289221374
0.020356218940955934
0.02112705879618304
0.021922451677619727
0.022750547362722983
0.023620119170364523
0.024540478307565474
0.02552136543546318
0.02657269092248326
0.0277022709202755
0.028883462016218258
0.029566621996605168
0.0011914375906304764
0.001320155041233594
0.0015801471117332117
0.0018914720153303639
0.002250030870874063
0.00265648908990464
0.0031111434854284594
0.0036135237458323863
0.004162352637228661
0.00475555457161134
0.005390291297383259
0.006063021608763621
0.006769579534507324
0.007505260032429673
0.00826489821908314
0.009042926801355825
0.00983348761462992
0.010630647613778896
0.011428840948515626
0.012223423665519378
0.01301104063604639
0.0137896679335496
0.014558233390627092
0.01531615038355461
0.01606322159470407
0.01679973040806563
0.017526884775964664
0.018247044966561925
0.01896384801162044
0.019682140543269576
0.02040786966693625
0.02114797630463883
0.021910304803094773
0.022703522852296095
0.023537044168584452
0.02442094620442699
0.025365868856514415
0.026382768719369332
0.027480689725381792
0.02863481690427635
0.02930472244911674
0.0011322031209194765
0.0012611104941673628
0.0015232580466630987
0.0018395859630787798
0.0022059352335320275
0.0026228075273095853
0.0030902967213167197
0.0036076965049071613
0.00417345933485242
0.004785200594066495
0.005439727817385865
0.0061330933046558275
0.006860667324896633
0.00761722767329989
0.008397062731025525
0.009194102768637852
0.010002100474323275
0.01081489982954856
0.011626777433966323
0.012432789155541487
0.01322901825842624
0.014012629319838455
0.014781763663075164
0.015535392270263699
0.01627322569979504
0.016995792983258873
0.01770457664391968
0.01840218199982221
0.019092418359237497
0.019780310755692785
0.02047205059583493
0.021174925250640478
0.021897244791951872
0.02264827186876212
0.023438153029013833
0.02427784644823345
0.025179032764515576
0.026153883123352373
0.027212872625281298
0.02833339557948725
0.028986685795885415
0.0010631966405848102
0.001192379030520805
0.0014571438473751851
0.0017794027703707837
0.0021549096510971016
0.002583970782795596
0.0030664475550221254
0.003601368014508977
0.0041868814687578745
0.004820255518873319
0.005497897649716843
0.006215402357144013
0.006967624834743736
0.007748781963939686
0.008552584390514349
0.00937240643215865
0.010201504553285423
0.011033282716229782
0.011861585070827666
0.012680970364869421
0.013486914905205578
0.014275916008426748
0.015045506199665938
0.015794224051189906
0.016521603827687
0.01722820296960209
0.01791567658476666
0.01858685348929245
0.019245793704127854
0.01989780347613027
0.02054941613245286
0.02120835011777349
0.021883458359673893
0.022584676193842284
0.023322969362074605
0.024110279063956522
0.024959451110718286
0.0258840249422242
0.026896109478128056
0.027975715304426416
0.02860857151069877
0.0009845565793490032
0.001114081321700241
0.001381905460224687
0.0017110140953206193
0.002097043276657303
0.0025400737521184442
0.0030397115771657085
0.003594699762158198
0.004202863527945976
0.004861095727380168
0.005565367767139393
0.006310770302182518
0.007091588141833331
0.00790141309253896
0.00873329780970235
0.009579952980259359
0.010433985553278215
0.011288167876358024
0.012135715350488793
0.012970542302474868
0.01378746712610579
0.014582351065459504
0.015352175246340983
0.016095077994590562
0.016810376911523976
0.01749859667123266
0.01816150363441858
0.018802142455199917
0.019424860594327027
0.020035314936327948
0.02064045922622476
0.0212485189670169
0.0218689605924885
0.022512460625445336
0.023190876334459185
0.023917215442444816
0.024705592282622445
0.025571048855638153
0.026527516515615
0.02755804897503239
0.028166138278532024
0.00089672665625614
0.00102660856721425
0.001297852124440119
0.0016346558886570115
0.0020325063404335025
0.002491232729416925
0.003010173575183996
0.003587781899653802
0.004221553236671196
0.0049079920487373856
0.0056426059920665315
0.006419936039293095
0.007233629992077653
0.008076564552751277
0.0089410179424994
0.009818890722817523
0.010701966670382451
0.011582198352235644
0.012451995837710183
0.013304494135995644
0.014133778445020504
0.014935055327330447
0.015704769833377735
0.016440678006502122
0.017141889297369036
0.01780889099709001
0.018443563061528376
0.019049184923326003
0.01963043451384311
0.020193378793924025
0.020745458139007474
0.02129546860429225
0.021853546975723573
0.022431161956803832
0.023041112293430893
0.02369752889160212
0.024415868177747335
0.025212778694208238
0.0261041767436184
0.027076595159835862
0.027655031117591683
0.0008005665974655365
0.00093071680278643
0.00120556536125541
0.001550740266843429
0.0019615496847537645
0.0024375537876109915
0.002977827432953849
0.0035805489021080435
0.004242898710228661
0.0049609956569151605
0.00572986476274275
0.006543449511373252
0.007394679302225042
0.008275598750072308
0.00917755978516218
0.010091470922130606
0.011008090974682536
0.011918348158305739
0.012813661272956012
0.013686239226869103
0.014529338988706075
0.01533746952500477
0.016106538067162335
0.016833943116771305
0.017518623350879666
0.018161073690091328
0.01876333873833884
0.01932899206843362
0.01986310811825557
0.020372232496573068
0.02086435624528776
0.021348899595206507
0.02183670958010787
0.022340074213988873
0.02287275304007622
0.023450020256107807
0.024088707075491794
0.024807129531909503
0.025623310869538684
0.026527695590669156
0.027071023338196144
0.0006974716315979469
0.0008276263625531424
0.0011059613480910609
0.0014598788948704054
0.0018844893552843515
0.002379080470342354
0.002942490857956406
0.0035726674035805694
0.004266517691151331
0.005019799215264458
0.005827046696764254
0.006681555704662332
0.007575437924926784
0.0084997568695142
0.009444744430030037
0.01040008946552082
0.011355280962852413
0.012299981477727586
0.013224402944692059
0.014119657483294822
0.014978060237534379
0.01579336899920196
0.016560954118161154
0.017277900693069406
0.017943051427556204
0.018557002550328536
0.019122066879066472
0.01964221781698717
0.02012302723339636
0.020571608359946595
0.020996573443539873
0.021408013824558963
0.02181750809352346
0.02223816106377574
0.02268467294221249
0.023173433784729656
0.023722628900700368
0.024352245635609886
0.02508247994756984
0.02590810020082194
0.02641031498288443
0.0005894922236413721
0.000719118181004173
0.0010003442925666148
0.0013628915167173713
0.0018016708127001424
0.0023157162370359263
0.00290369070702743
0.0035633917827090685
0.004291533888529713
0.005083567380905676
0.0059335447739036935
0.0068340604886704326
0.007776286075072824
0.008750112966277613
0.009744402868520758
0.01074733320636517
0.011746813622723899
0.012730941108247828
0.013688457393319727
0.014609173354098223
0.015484331179860226
0.01630688437542606
0.01707168669259439
0.017775591677823506
0.01841747334096275
0.01899818447944135
0.01952047245658225
0.019988872887745993
0.02040960052361425
0.020790454257793453
0.021140750055697214
0.02147129249041028
0.021794391981701283
0.022123931416613816
0.02247548178784689
0.022866461305265026
0.023316320973014962
0.02384665205592594
0.024479816434500097
0.025215277987185092
0.025669888091733484
0.00047943807523242456
0.0006076130527582056
0.0008904399447217452
0.0012607919201444717
0.00171340842960702
0.002247119351452341
0.0028605173028035734
0.003551385530079868
0.0043163776477466624
0.005150733441213766
0.006048054103330093
0.007000176749634992
0.00799717922482818
0.009027532064576446
0.010078397568852922
0.01113605825991867
0.012186441085922449
0.01321569217620408
0.01421075186391038
0.015159881821140742
0.016053104721682525
0.016882530131976783
0.017642555657859264
0.018329947170357602
0.018943814077562217
0.01948550412124488
0.019958446322109833
0.020367971551341
0.02072113771515491
0.021026582804203626
0.021294423827869922
0.021536215014798653
0.021764973615745208
0.021995277910971323
0.02224343812008154
0.02252773595305629
0.02286871568230338
0.02328941717543734
0.023814278498404083
0.024447767530619027
0.024847912249580825
0.00037094216643685765
0.0004962126529086771
0.0007783944563204432
0.0011547451609692
0.0016199001979423588
0.0021725740140317237
0.002811451794040291
0.0035345108274379197
0.00433855262123824
0.005218763736702639
0.006168357986041014
0.007178356294542579
0.008237546835841844
0.00933264970738111
0.010448686606721
0.011569530794553086
0.012678589012123532
0.013759550402825806
0.01479713007583836
0.015777738669915328
0.01669002280961279
0.0175252415419102
0.018277466852012828
0.018943617818537165
0.019523355207975643
0.020018874249864444
0.020434638108954566
0.020777093742870067
0.021054407092042017
0.021276247528673884
0.021453643624516412
0.021598924916987432
0.02172575815442994
0.021849282018846998
0.02198634153579114
0.02215582230042448
0.022379074756813087
0.022680331977424233
0.023085918031372638
0.02360555339281752
0.02394419277444647
0.0002684440917218868
0.0003886710597871173
0.0006667241637804571
0.0010459937460804603
0.0015211303106907677
0.0020908520088133635
0.002754175523562793
0.0035095954284214853
0.004354378503575478
0.005283900327923741
0.006291099433510978
0.007366121031037789
0.008496211215912063
0.009665898021056147
0.010857462961265192
0.012051668754104112
0.013228673189163176
0.014369032757717795
0.01545468869760912
0.01646983461968398
0.017401587170764503
0.01824041372535203
0.018980306968516752
0.01961872849830713
0.020156367719300874
0.020596775850404654
0.020945938427494284
0.021211845162238733
0.021404105962629764
0.021533649969867032
0.021612531814043354
0.02165385897854489
0.021671845786778013
0.021681994581502866
0.021701403051493522
0.021749198208024383
0.02184710673310884
0.02202010782636043
0.022296177132715332
0.02269044458633684
0.022960605708923953
0.00017706026905086139
0.0002892613081454521
0.000558193769964402
0.000935788359241442
0.0014167920679958753
0.002000069858999933
0.0026853748063955054
0.0034721998415770576
0.004358735710518447
0.00534090682976448
0.006411561048312371
0.00755991635028349
0.008771353173643543
0.010027612454045048
0.011307411991044066
0.012587434969791051
0.013843587635367695
0.015052379560699167
0.016192262270123825
0.01724477406867539
0.018195376703472217
0.01903392466951738
0.019754765041591574
0.02035651556831999
0.020841601676184495
0.021215648434338683
0.021486821890724036
0.02166520151605364
0.021762246043882695
0.02179039429280659
0.021762823812936656
0.021693375594586485
0.021596643207329333
0.02148821958073448
0.021385093309567078
0.021306190890058863
0.0212730642163363
0.021310755927004047
0.021448169258771632
0.021706459032687146
0.021901635342208278
0.00010511002452828995
0.00020248270065430736
0.0004557560409586382
0.0008253801080757396
0.0013061620212183782
0.0018975372012618541
0.0026005854185041054
0.0034164442514810957
0.0043448719663840086
0.00538286922822037
0.006523496585669275
0.00775502549917073
0.009060565225512168
0.010418267974863117
0.011802147299891064
0.013183451108014894
0.01453243537441451
0.015820309930760015
0.017021097677449498
0.01811317002691899
0.019080290472236215
0.019912091873602177
0.02060400949522475
0.02115676678347039
0.021575556188546046
0.021869068392866817
0.022048510247250186
0.022126721210843938
0.02211746266979846
0.022034920423112295
0.021893433597461088
0.02170744473381064
0.021491656117992256
0.021261373907511563
0.021033023987211606
0.020824825297584334
0.020657618788868612
0.020555771199219922
0.02054800204320177
0.02066010142136401
0.02077412797022895
5.2932574948424076e-05
0.00013300290731958626
0.00036247043011962903
0.0007157726456153783
0.0011880859738269678
0.0017799883985321547
0.0024945493340873003
0.0033354221027513628
0.004304831248893947
0.0054016394032240485
0.006619621486878333
0.007946163971442276
0.009361610739878576
0.010839441553262361
0.012347367103931658
0.013849274961247509
0.015307792293097384
0.016687099261706237
0.017955569522965665
0.019087859134798085
0.020066190994427566
0.020880753309380405
0.021529290847232034
0.022016084884228505
0.02235056960043323
0.022545830911949224
0.022617188756680062
0.022581003334187753
0.022453781777740593
0.022251610196162196
0.021989899246697763
0.02168341200385168
0.021346536613466884
0.020993770418985532
0.020640391741262552
0.02030330801634331
0.020002066305444866
0.01976005145864211
0.019605049768438566
0.019566531110604985
0.019593571432462813
0.001092264343992339
0.0016823052449689005
0.003273811700515621
0.006756072505202598
0.00819108065952633
0.011345720015085232
0.012991965600762616
0.016198345916080766
0.017667709239271443
0.020153485884578624
0.021123359389060993
0.021897739525823294
0.02247866187430525
0.02287586773679964
0.023104645433898365
0.02318367370464144
0.021151228582968883
0.020686385882705733
0.018973065222760578
0.018683385680505742
0.018449118823957257
2.4950117088599823e-05
9.183494515882771e-05
0.00029660674118478866
0.0006310855886122517
0.00240714444198414
0.004287787422825665
0.005450334738020827
0.00973189742594732
0.014625098323950057
0.0189955929226022
0.02313312956628759
0.022973212495201584
0.022723140137451983
0.022400599969734213
0.022021601320908142
0.021600656970085536
0.020219651449006275
0.01976602640849793
0.01934322107331254
0.01850520606657978
1.7531757356689524e-05
6.859532655435051e-05
0.0002468782810645247
0.0005588085727495163
0.0010010952392455954
0.001577127074464083
0.002294873026034707
0.0031640819673652287
0.004193114487079191
0.00538577539280293
0.006738305321411806
0.008236926131354056
0.009856405419990966
0.011560090011300922
0.013301672958489217
0.015028626048199134
0.01668683324667912
0.01822563466936494
0.01960237023272876
0.020785648774142323
0.021756910985063993
0.02251026476060807
0.023050915624398895
0.023392706776371272
0.023555316189644127
0.02356156973145042
0.023435181947027373
0.023199080194643885
0.02287434094205495
0.022479682607284484
0.022031417927277877
0.021543761877739678
0.02102940553120984
0.0205002926767048
0.019968567228874447
0.019447685055562602
0.01895372481683394
0.018506882360989466
0.018133285147667298
0.01786494067658194
0.017757270422739946
2.0399783139489055e-05
5.599713789713575e-05
0.00020939965498049836
0.0004995628760057992
0.0009234739942394777
0.0014856123365289365
0.0021962553457901533
0.0030681207666001377
0.0041127705917323515
0.0053368624690277415
0.0067384995074428805
0.00830411563608836
0.010006512288742511
0.011804670856996914
0.01364575564248011
0.015469285629348644
0.017212899883501748
0.01881866924556827
0.020238723013054363
0.02143915511499099
0.022401667674173346
0.023122991160694824
0.02361258188973682
0.02388932611481747
0.02397797856502851
0.023905904934482865
0.023700476343145878
0.02338725234075039
0.022988931025871732
0.022524952588021636
0.022011607884520164
0.021462510339944563
0.02088931918394005
0.020302640868778504
0.019713072789001876
0.019132395046077444
0.018574902010270334
0.018059047526875115
0.017608645327467372
0.01726009900985035
0.01710875877610309
3.062895250362506e-05
5.055180493123358e-05
0.00017787588276960422
0.0004443286423790204
0.0008475061653093764
0.0013931019560915775
0.0020939677630310884
0.0029662525952421693
0.00402528276328816
0.005281184943656598