# vtk DataFile Version 2.0
time_10.vtk
ASCII
DATASET UNSTRUCTURED_GRID
POINTS   4141  float 
6.567608216697276e-05         1.72216520075573e-17          0.0                           
0.24999999999999947           6.282866306918188e-05         0.0                           
0.5000611488313301            3.861205262898838e-18         0.0                           
0.75                          5.720846577446952e-05         0.0                           
1.000054925283499             -4.406228577800279e-17        0.0                           
1.25                          4.969015854904914e-05         0.0                           
1.500046727067609             -1.1855739085643231e-16       0.0                           
1.7499999999999991            4.009738746800124e-05         0.0                           
2.000036432035925             -1.1544950874241956e-16       0.0                           
2.25                          2.8419078246865245e-05        0.0                           
2.5000240856630653            -3.093322999152114e-17        0.0                           
2.75                          1.4823921499955105e-05        0.0                           
3.0000099398070543            -5.968853538446266e-17        0.0                           
3.25                          -2.5278598875112114e-17       0.0                           
3.499994030435205             5.96514766619516e-17          0.0                           
3.75                          -1.7879037535986864e-05       0.0                           
3.999976042019797             -1.6843885635846514e-16       0.0                           
4.25                          -3.643502060768277e-05        0.0                           
4.499957169782757             -9.199485837673253e-17        0.0                           
4.75                          -5.5919100274416074e-05       0.0                           
4.999937390936802             8.288431789403132e-17         0.0                           
5.25                          -7.628179697062697e-05        0.0                           
5.499916729413956             -1.7362838587933174e-18       0.0                           
5.75                          -9.758248100935087e-05        0.0                           
5.999895076800893             1.65871428391567e-17          0.0                           
6.25                          -0.00012003204504057623       0.0                           
6.499872171665204             -1.8271748470235218e-16       0.0                           
6.75                          6.543281819125853e-05         0.0                           
7.000064092127698             3.963251586691763e-06         0.0                           
7.250004406151225             6.091262200925244e-05         0.0                           
7.500059044788635             5.358459273407535e-06         0.0                           
7.750005863297971             5.469174311284706e-05         0.0                           
8.000052187378573             6.9171035778655685e-06        0.0                           
8.250007460350538             4.648980915565477e-05         0.0                           
8.500043289459528             8.56488792760394e-06          0.0                           
8.750009120383298             3.6183156495457756e-05        0.0                           
9.000032282265517             1.0223914221032337e-05        0.0                           
9.250010766677452             2.3812318218621482e-05        0.0                           
9.500019259785459             1.1821428304473477e-05        0.0                           
9.750012327971639             9.568068028284697e-06         0.0                           
10.000004425452946            1.3287060093914755e-05        0.0                           
1.3863795811723546e-05        0.2999934829024826            0.0                           
0.24998770446100138           0.3000148559674787            0.0                           
0.5000152781554666            0.2999757022933312            0.0                           
0.7499695208669603            0.3000161011784809            0.0                           
1.0000165023195189            0.29995683219614044           0.0                           
1.249950334395658             0.30001728916934306           0.0                           
1.500017678691825             0.2999370466601953            0.0                           
1.749930258130608             0.3000184619407891            0.0                           
2.000018861092655             0.2999163818462235            0.0                           
2.2499092843418285            0.3000196887651227            0.0                           
2.5000201230552985            0.2998947314088346            0.0                           
2.749887254534053             0.3000210463531771            0.0                           
3.000021540390014             0.2998718332248351            0.0                           
3.249863857593322             0.3000226041268701            0.0                           
3.500007074503969             0.30006337001643907           0.0                           
3.7500618755730675            0.3000087990338892            0.0                           
4.000009732273152             0.3000583405063728            0.0                           
4.250056273175644             0.30001171918170044           0.0                           
4.500012762528842             0.3000514854022967            0.0                           
4.750048749384888             0.3000149207593101            0.0                           
5.000016023901191             0.3000425694448008            0.0                           
5.250039122183828             0.30001824906429064           0.0                           
5.500019359867444             0.3000315193315802            0.0                           
5.750027371501782             0.30002155196416147           0.0                           
6.000022624107671             0.30001841172689286           0.0                           
6.250013611405589             0.30002470411462706           0.0                           
6.5000257130751615            0.30000337449864456           0.0                           
6.7499979739658205            0.3000277456385448            0.0                           
7.000028735054238             0.2999866578444035            0.0                           
7.24998075257824              0.3000305409182836            0.0                           
7.500031384619689             0.2999685214116685            0.0                           
7.749962225468244             0.3000330109739187            0.0                           
8.000033802220015             0.2999493161779484            0.0                           
8.249942713024188             0.300035362060991             0.0                           
8.500036140373322             0.2999292208125394            0.0                           
8.749922330383072             0.3000377208158946            0.0                           
9.000038534468015             0.2999082422452671            0.0                           
9.249901030890678             0.30004023792533613           0.0                           
9.500041139161793             0.2998862243117035            0.0                           
9.749878603650105             0.3000430671007116            0.0                           
10.000044103055401            0.299862851454581             0.0                           
6.348460595387359e-05         0.6000105728205033            0.0                           
0.25001183111883685           0.6000606832519115            0.0                           
0.5000590216977857            0.6000145691417766            0.0                           
0.7500160366094745            0.6000551036062948            0.0                           
1.000052823062829             0.6000191308123546            0.0                           
1.2500207407113364            0.6000475737810016            0.0                           
1.5000445931531539            0.6000240420021455            0.0                           
1.7500257156731998            0.6000379056745446            0.0                           
2.0000341990417128            0.6000290664131054            0.0                           
2.250030727715657             0.6000260735454354            0.0                           
2.5000216641509145            0.6000339883234789            0.0                           
2.7500355778262953            0.6000121804863473            0.0                           
3.000007118539499             0.600038671258238             0.0                           
3.2500401808354664            0.5999964180990653            0.0                           
3.4999908117633547            0.600043101208714             0.0                           
3.7500444841679257            0.5999791271455063            0.0                           
3.999973065540062             0.6000470872556076            0.0                           
4.250048325918637             0.5999605629268058            0.0                           
4.499954143741076             0.600050720739288             0.0                           
4.750051891325782             0.599941006331845             0.0                           
4.999934296165627             0.6000542166419046            0.0                           
5.250055387783378             0.5999205970377045            0.0                           
5.499913603244436             0.6000577906471355            0.0                           
5.750059040318488             0.5998992986985744            0.0                           
5.999891970041777             0.6000616804089781            0.0                           
6.2500630875758025            0.5998768997514737            0.0                           
[...]
POINT_DATA  4141
SCALARS Con float 1
LOOKUP_TABLE default
0.0004052594855467468
0.0004617458075788647
0.0005708691045545994
0.000701025658136928
0.0008510834930868572
0.0010218945398156763
0.0012141515821373595
0.001428203813542057
0.0016640209353145504
0.0019211807101105914
0.002198870330260018
0.0024958995919750052
0.002810722893890761
0.0031414646866069944
0.003485939080473456
0.00384164766695874
0.004205743156770638
0.004575002411299729
0.0049466869493189425
0.005329587025846158
0.0057924163900486166
0.0062594242963237325
0.00665861862574134
0.007038311964084423
0.007422938451484621
0.007810685032136146
0.008201522142458012
0.008595943358610933
0.008995223239064824
0.009401251116050786
0.009816444634311918
0.010243679500705951
0.01068623243580788
0.011147729136436699
0.011632093349158733
0.012143494193275898
0.012686285070203576
0.013264858567842396
0.013882365709328232
0.014522662243267362
0.014893195398199862
0.0004111975503120132
0.00046915269015334574
0.0005806300657026744
0.0007134111755301412
0.0008663650934879325
0.0010402973409950422
0.0012358509828244112
0.0014533213703509216
0.001692623368812664
0.0019532820911058748
0.002234438353887394
0.00253486777182225
0.002853012721359058
0.0031870270228102917
0.0035348364785099174
0.003894234250441403
0.004263071076769155
0.004639894801558664
0.00502554915729028
0.005433846262827169
0.005854632142432148
0.006272336755558128
0.006678525252003616
0.007077088560895044
0.007469422474704474
0.007861180508846948
0.008254038615256915
0.00864958152063225
0.009049590660665602
0.009456248597549817
0.009872161231033039
0.010300342560121084
0.010744181689886419
0.011207402346898935
0.01169401752654615
0.012208279324392793
0.012754618422048615
0.013337500099403687
0.013960117910218613
0.01460656846797503
0.01498111068950793
0.00040627160561865526
0.00046407671336449725
0.0005755918402161262
0.0007087213522474172
0.0008623161358903009
0.0010371787542744876
0.0012339429125355337
0.0014528932579422303
0.0016939348240236098
0.0019565872268367175
0.0022399955972338187
0.0025429593194436157
0.002863981785125236
0.0032013487429089376
0.0035532541819766296
0.003918013983641327
0.004294487141421555
0.004682644418574659
0.005085418519401227
0.005489729330509369
0.005870609293135067
0.006254515625180382
0.006664337494516778
0.007072529091895076
0.007473961978870174
0.007870691659283545
0.00826577441550704
0.00866161027076164
0.0090605559238367
0.009465145136660759
0.009878214725844629
0.010302945259491967
0.010742861990613693
0.011201813779794753
0.011683939203720864
0.012193623273944788
0.012735440866250405
0.01331401182834341
0.013932703131602147
0.014575633004862061
0.014948192296583823
0.00039770233418856614
0.0004554082735571825
0.000567013313575381
0.0007007030438680683
0.0008553457259211515
0.0010317330759336623
0.0012304818496842868
0.00145185584202195
0.0016957383617146422
0.001961629652373322
0.0022486621711620422
0.002555635421028314
0.0028810737721260008
0.0032233126454705562
0.0035806182971066126
0.003951341596169655
0.00433399514258106
0.004727116277827685
0.005125128096749801
0.005519026850600726
0.005908977014254765
0.006298922919397308
0.006693878084998768
0.0070959946781209635
0.007496914589321908
0.007894346421155975
0.00828919206114574
0.008683440638975075
0.009079449197923011
0.009479887876265752
0.009887753589632415
0.010306389324625178
0.010739485022836745
0.011191062443228227
0.011665447319424866
0.012167230765858867
0.012701215280637118
0.013272270260795358
0.013884027734200232
0.014521010046995108
0.014890657212722185
0.00038563360881806045
0.00044319382074509427
0.0005549422764859325
0.0006894324934311051
0.0008455539373223678
0.001024082634980258
0.0012256082587663048
0.0014503606609634354
0.0016981843877034329
0.001968537464159822
0.0022605070640404302
0.0025728426756819298
0.0029040068849392757
0.003252240250685813
0.003615626588070715
0.00399210638950233
0.004379346621635414
0.004773934773471698
0.00517138990446233
0.005568115354508726
0.00596221925398262
0.006355521048467667
0.006750426401583987
0.0071465561247538835
0.007542693081260605
0.00793660129972138
0.008327975048404325
0.008717954750376422
0.00910854680789705
0.009502326717553692
0.009902333742973786
0.010312026606859974
0.010735258044011394
0.011176249911766247
0.011639563120111333
0.01213005949253498
0.012652848578564064
0.013213143786888492
0.013814969763368993
0.014443460561080177
0.014808959084064282
0.0003700092425675735
0.0004273936543892833
0.0005393431688683329
0.0006748805475090794
0.0008329177535480849
0.0010142071420144287
0.0012193001759940728
0.0014483781398541818
0.0017012275071705333
0.001977237695487738
0.0022754133332795663
0.0025944001953317514
0.0029325219103936186
0.003287819221422626
0.003658071892920766
0.004040772300719406
0.004432979684168099
0.0048313059217165895
0.005232270885508628
0.005632902721244613
0.0060317570523551025
0.0064286498737229384
0.006823946223372249
0.00721775485527557
0.0076092972801544
0.007997902875049211
0.008383375513975217
0.008766530785562087
0.009149088030382474
0.009533487927291223
0.00992276258649591
0.010320459635754592
0.010730593564348339
0.011157608324329176
0.011606341773146116
0.012081986165599265
0.012590035797084764
0.013136146277963555
0.013724862596255213
0.014342109631614624
0.014702069916959031
0.0003508038533283912
0.0004079825653337522
0.0005201955546520477
0.0006570318166865437
0.000817425814952648
0.0010020972868171412
0.0012115481539679484
0.0014458971274578312
0.0017048545415517863
0.0019877171440339913
0.0022933748724521886
0.0026203283238240274
0.00296671379077427
0.0033303290607222644
0.003708650524841242
0.004098832034365823
0.004497732643733048
0.00490204012447969
0.005308545028671249
0.005714580249131171
0.006118275472211658
0.006518610462536303
0.006915083595370881
0.007307300471472696
0.007694896500875722
0.0080775992917617
0.008455613325245586
0.008829813201137973
0.009201853615222558
0.009574127808520176
0.009949692022735095
0.010332197774604176
0.010725839358157581
0.011135311580874259
0.01156577183202767
0.012022800909494381
0.012512353225689629
0.013040621474891725
0.013612784580977814
0.014215743366245238
0.014568625363505991
0.0003280396602774074
0.0003849797097170462
0.000497514262922432
0.0006358989950574714
0.0007990886251105201
0.0009877608250718386
0.0012023578707729453
0.0014429246488264981
0.0017090815498053006
0.0020000148458645763
0.002314477213939513
0.002650798024748481
0.0030069022023271256
0.003380335669824997
0.0037682966818053066
0.004167684161189709
0.0045751843846362425
0.004987424003003933
0.005401198586795112
0.005813709404085165
0.006222748434304447
0.006626719914429062
0.007024538170517785
0.007415489969821671
0.0077991482263824585
0.008175441748180017
0.008544773052226375
0.008908169507897449
0.009267360088616224
0.009624795834598503
0.009983622955068794
0.010347640639575321
0.010721258963941773
0.011109461215164868
0.011517769470314385
0.011952209796039141
0.012419268180270091
0.012925762764222418
0.013477618402960191
0.014062919982677459
0.014406997568594471
0.00030181919057511574
0.0003584755203276829
0.00047137082956023407
0.0006115372469493721
0.0007779458404256133
0.0009712228850474672
0.0011917434922887812
0.0014394721213077928
0.0017139318003065729
0.0020141884951528732
0.002338844693617868
0.002686043585780533
0.00305348537753104
0.0034384575924581726
0.003837883782607263
0.004248398491780338
0.004666459161871404
0.005088500451011416
0.005511117373641317
0.005931248385633971
0.006346308635722424
0.006754251580918108
0.007153559876888747
0.007543206030472066
0.007922636842075599
0.008291797020172362
0.008651199419585465
0.009001998468381393
0.009346049173761634
0.009685930819451237
0.01002494303668795
0.010367084222230396
0.010717024002296259
0.011080075898445337
0.011462171755534626
0.011869836055238706
0.012310151872628777
0.012790645470641024
0.013318098202459128
0.013881999737913903
0.014215325859348937
0.0002723612592169019
0.0003286633347267621
0.0004419164284731249
0.000584058083470387
0.0007540706987813811
0.0009525207876442753
0.001179712827194717
0.001435530703503004
0.0017194006475709641
0.0020302671066710206
0.0023665775916228535
0.0027262800500968774
0.003106836783884629
0.0035052591977100425
0.003918168086876808
0.004341884300271023
0.004772552341602601
0.005206292991693614
0.0056393719489133
0.006068361237885135
0.006490270706525436
0.006902633660992137
0.0073035496551215025
0.00769170185574867
0.008066369959850682
0.008427455993894554
0.008775521625982434
0.00911183036152314
0.009438380296249042
0.009757921418116095
0.010073956198709428
0.010390729222684521
0.01071321189469212
0.011047087354799921
0.01139873748703794
0.0117752308992295
0.0121843041912186
0.012634265289920541
0.01313285574121187
0.013671200701999628
0.01399157673249021
0.00024004097480048313
0.00029587361618926546
0.0004094055769477572
0.0005536416705983577
0.0007275705197938839
0.0009316925906974996
0.0011662441251710952
0.0014310368084643659
0.0017254103893103024
0.002048195991938684
0.002397688615914097
0.0027716347757017
0.003167241539726593
0.003581212684817372
0.004009816471056437
0.00444898730668009
0.004894459632027407
0.005341926855015518
0.005787211953794277
0.00622643264525666
0.006656144272199368
0.007073450049027271
0.007476077224762789
0.007862426172028113
0.008231603581641362
0.008583448443552405
0.00891855567183947
0.009238295769866666
0.00954482837171787
0.00984110719585698
0.010130877602101088
0.01041866995232726
0.010709793128298175
0.011010331628653725
0.011327147749124581
0.011667887675125813
0.012040983854756689
0.012455584714838314
0.012920482874215346
0.013428674853682519
0.0137336269135395
0.00020543196219195055
0.00026060925976071996
0.00037421884676486043
0.0005205460221582178
0.0006985819281439118
0.0009087583630583218
0.0011512539630399562
0.001425827826591978
0.0017317558051221924
0.0020677750553912645
0.0024320383668017115
0.002822086938444852
0.0032348502682136493
0.003666680375800898
0.004113424937268581
0.004570540147150582
0.0050332392641494975
0.005496667511543788
0.005956089488239179
0.00640707292250144
0.006845653744177657
0.007268471809248012
0.007672872963697113
0.008056979326100758
0.008419733326006726
0.008760922439184459
0.009081190243772455
0.009382037732544373
0.009665817781125019
0.009935725395780555
0.010195787070255742
0.010450853274687862
0.01070659782131509
0.010969526966071003
0.011246999165003293
0.011547253882598113
0.011879441636140098
0.012253588825819374
0.012679609946167474
0.013152607639566759
0.01343937377893446
0.00016934722584313266
0.00022357879219739093
0.00033688194448909157
0.00048511094538189773
0.000667259200080364
0.000883693005077471
0.0011345554088433693
0.0014195874544360686
0.0017380396239936144
0.002088588781532968
0.002469265824160709
0.0028774061230575822
0.0033096345045842634
0.00376189412932974
0.004229524664112397
0.00470738981656221
0.005190048338371832
0.005671956809814118
0.00614768809075349
0.006612147466026039
0.007060769548201248
0.007489683102392832
0.007895836519053626
0.008277082710300948
0.008632226931612929
0.00896104406674041
0.009264273220558325
0.00954359733717324
0.00980161534910929
0.010041813505043032
0.010268542221801234
0.01048700387334769
0.010703256005088752
0.010924232747402262
0.01115778508201055
0.011412737803251858
0.011698954905321515
0.012027349443947193
0.012409000426652012
0.012841341808347362
0.013106874577842993
0.0001328731674941724
0.00018572244847664353
0.00029807741409866736
0.00044775416235578834
0.0006337541960973193
0.0008563899781687493
0.0011158062797781729
0.0014117803886566306
0.0017435971467694255
0.0021099260547037244
0.0025087103262169913
0.0029370845348867204
0.0033913370373755123
0.003866929758587825
0.004358582413771855
0.0048604210172993444
0.005366182699350699
0.00586946158341866
0.0063639752072224024
0.00684382866418738
0.007303755022165467
0.007739314976821297
0.00814704535343817
0.00852455326472155
0.008870559310901647
0.00918489804016573
0.009468486861055848
0.009723275668218795
0.009952189219455693
0.010159073239768831
0.010348653494138493
0.010526515434559139
0.01069910974073715
0.010873787046748167
0.011058862557298852
0.01126370809193062
0.011498862038463216
0.011776096460680464
0.012107660651809597
0.012493525384457348
0.012734515353114812
9.738765690427542e-05
0.00014822366595892246
0.00025864383740830917
0.0004089569008562047
0.0005981874336520189
0.0008266169771141669
0.0010944492035976925
0.0014015780185275704
0.0017474109990801916
0.0021306899013000123
0.0025493242553049724
0.003000261752998258
0.003479417648176963
0.003981680679218727
0.004501005434445246
0.005030591261413289
0.005563137007482617
0.006091150813144206
0.006607286879860403
0.007104678129210497
0.007577235375509464
0.008019889774114514
0.00842876437243071
0.008801270678226517
0.009136135413052651
0.009433369842327642
0.009694198275927763
0.009920964157626888
0.010117031281558957
0.010286695797428072
0.010435121447733347
0.010568307597367528
0.010693096260517716
0.010817221833043112
0.010949404603767808
0.01109948612230937
0.011278597052584978
0.011499295123868157
0.011774962981150806
0.012108281999484691
0.012321207746324505
6.454941568871078e-05
0.00011249554607584573
0.00021955646513242667
0.0003692376038691726
0.0005606125232025868
0.0007939681941430834
0.001069648767667032
0.0013877797986489822
0.0017480199856272794
0.002149300303372773
0.0025895790073578746
0.003065644822055941
0.00357299858323431
0.004105838293370965
0.004657162402562375
0.005218992629030817
0.0057827016836928926
0.006339416693731062
0.006880458103911054
0.007397769392968769
0.007884295812600977
0.008334279714556522
0.008743453871771396
0.009109129139619566
0.009430186497496256
0.00970699339973551
0.009941270029281002
0.010135932302035074
0.010294936458741282
0.010423146010519692
0.0105262367224087
0.010610650389392254
0.010683603900516163
0.010753156792217246
0.010828338357939657
0.010919334133646295
0.011037726184200791
0.011196732591878438
0.011410778277583305
0.011685398591746868
0.01186661238556144
3.624039307885546e-05
8.012884473653065e-05
0.00018188404565866776
0.0003291150860062458
0.0005209824731186658
0.0007578233305627375
0.00104023440074201
0.0013687391819970263
0.0017434309059408716
0.002163598173030252
0.0026273712621200512
0.0031314302735638696
0.003670817312132261
0.0042388891225778064
0.0048274340535004005
0.00542695747138041
0.006027116196650016
0.006617259393326711
0.007187016328717479
0.007726864477454287
0.008228616563793471
0.008685780711122915
0.009093770034970989
0.009449961427756889
0.0097536233915183
0.010005746299164626
0.010208814660158624
0.010366560586387819
0.010483732285394044
0.010565904038867553
0.010619345555933586
0.010650961531045569
0.010668306254531223
0.010679674449952945
0.010694267782555791
0.01072243658490334
0.010775999909709958
0.010868612567889567
0.011015627015917613
0.011225519505297776
0.011371361695303778
1.4444080902461463e-05
5.278582431282567e-05
0.00014671661691669034
0.0002890790740411469
0.0004791349149828044
0.0007173208171012058
0.0010046609381935217
0.0013423101309468395
0.0017310501556353222
0.002170765755987232
0.0026599421527343996
0.0031952385350618355
0.003771196727918277
0.004380141131177714
0.005012310007659245
0.005656229325875131
0.006299303688373142
0.006928561201788471
0.007531460888280397
0.008096660528224973
0.008614651907367613
0.009078198287239797
0.009482545486249772
0.00982541584180522
0.010106823847708425
0.010328770072661619
0.01049487464570656
0.010610006700025787
0.010679954586668644
0.010711168081077756
0.010710590823266456
0.010685590849200918
0.010643989878705748
0.010594188093849603
0.01054537968265831
0.010507856185722078
0.010493395407776204
0.010515743750320099
0.010590815735781332
0.010730355611927452
0.010837348876038499
3.93896720462892e-06
3.203404381927552e-05
0.00011511933395743326
0.00024958971636869753
0.00043477270844558517
0.000671350734476292
0.0009610113428563107
0.0013058454806059512
0.0017076664297299771
0.0021672900705691943
0.0026838299816401867
0.0032540762678497617
0.0038720461609548893
0.004528794167751778
0.005212552061041864
0.005909226003561141
0.006603219003600218
0.007278482927393658
0.007919656005385127
0.00851312304507935
0.009047854794186844
0.009515931814667864
0.009912723292347535
0.010236751563132562
0.01048931773196919
0.010673983501044683
0.010796004347192651
0.010861792913633157
0.010878468985119849
0.010853529004593163
0.01079464874567858
0.010709619101700308
0.01060640757960277
0.01049333474671177
0.010379356168256729
0.010274441120236611
0.010190045383459764
0.01013963312928802
0.01013911321292785
0.010202785289044489
0.01026760305286232
8.583723918018407e-07
1.919523106268538e-05
8.805833672979589e-05
0.00021097478576460776
0.00038750575004514954
0.000618713598903905
0.0009072223102541831
0.0012564482072256707
0.0016696947591747892
0.002149182620410652
0.0026950656790806753
0.0033045270359694447
0.003971081488694799
0.0046842283799631585
0.00542957923224539
0.006189524141141903
0.006944400470893082
0.007674017442902138
0.008359299999438331
0.008983785415394772
0.009534742517945633
0.01000377844136165
0.010386911602712687
0.01068419172509159
0.010899008502162744
0.01103725051593164
0.011106457325617908
0.011115071704056682
0.011071855533838269
0.010985496074830639
0.010864401911494775
0.010716672662542639
0.0105502205194664
0.010373023207926444
0.010193493293566903
0.010020956226127581
0.009866229504132016
0.009742312214468923
0.009664752552323186
0.009649906536189606
0.009669176622004887
0.0003475895427100143
0.0005724957660700576
0.0012124505930984361
0.002718108275238907
0.0033720727292442876
0.004871100857525253
0.005685741695492229
0.007336258945266472
0.008122185394767863
0.009500946476699416
0.010060376657351893
0.010520377686253505
0.010878578284992476
0.011137565125481114
0.011303736205391391
0.011386041203986145
0.010469277165862344
0.010232833522801877
0.00934858191907365
0.009200008174393067
0.009087729926656638
2.592897313697109e-06
1.4582841908419745e-05
6.937839700785271e-05
0.00018044749963622535
0.0008590708098448981
0.0016378422107478532
0.0021392435364432387
0.00409393322052594
0.006515715008747574
0.008850202872612975
0.011394807695866354
0.01134078023237407
0.011234430881209052
0.011085546452517539
0.010903065788437473
0.01069512598866611
0.009993341688798549
0.00975916131584188
0.009540170080881854
0.009111976631163197
1.0729999703721547e-05
1.5638724857085696e-05
5.7207507177132916e-05
0.00015639609460407156
0.0003127501522553547
0.0005282747380445148
0.0008077081788075477
0.0011574451047267017
0.0015842095188139712
0.0020935793110987855
0.0026883881686471144
0.0033671404342151714
0.004122668370969762
0.004941334572741701
0.005803078370420734
0.006682491321106902
0.007550887255614015
0.008379063561233491
0.009140238242653705
0.009812584516083422
0.01038090638200101
0.010837245668894099
0.011180483220960642
0.011415196017169319
0.011550118290685875
0.011596534483713176
0.011566848702450646
0.01147346993483716
0.011328060103532158
0.011141126935317495
0.010921908806406226
0.010678489153791047
0.010418083941864836
0.01014746114906497
0.009873470007407894
0.00960367417650523
0.009347106039395838
0.009115141215922329
0.008922543122568972
0.00878745011422843
0.008736240325275193
2.093593718868478e-05
1.8615797146969274e-05
4.8356024669463936e-05
0.0001365601950395492
0.00028277033981533815
0.0004892935806012552
0.0007617765517462207
0.0011079612065557573
0.0015362142709717172
0.002053844884273899
0.00266522859165406
0.0033698703342041696
0.004160685419935184
0.005022891694689891
0.005933928767020755
0.0068646896442937635
0.00778205756554813
0.008652362866067579
0.009445065170976333
0.01013587571716597
0.010708713927955244
0.011156253101361596
0.01147918976643614
0.011684630240818138
0.011784074639996958
0.011791420421210088
0.011721272764595881
0.011587701175324453
0.011403463191992593
0.011179641869002954
0.010925611168965715
0.010649241545781419
0.010357273857365436
0.010055812939841991
0.009750915790604447
0.009449274383603306
0.009158991489619791
0.008890538141561346