# vtk DataFile Version 2.0
time_10.vtk
ASCII
DATASET UNSTRUCTURED_GRID
POINTS   4141  float 
3.256828372053454e-05         8.892311118867607e-18         0.0                           
0.2499999999999989            3.0813302737431645e-05        0.0                           
0.5000298370624242            -3.4031896953823037e-16       0.0                           
0.75                          2.7655357481709194e-05        0.0                           
1.0000264393498581            -4.353333037457311e-17        0.0                           
1.25                          2.3737017768782627e-05        0.0                           
1.500022245427365             -5.888805924533006e-18        0.0                           
1.7500000000000007            1.897528327540037e-05         0.0                           
2.000017197080219             5.062646947478205e-18         0.0                           
2.25                          1.3362069273325215e-05        0.0                           
2.500011311010886             1.774956263355723e-17         0.0                           
2.7500000000000018            6.964108802709304e-06         0.0                           
3.000004683003067             8.092833230163205e-18         0.0                           
3.25                          8.262204297218697e-18         0.0                           
3.499997372682223             7.993425210990372e-17         0.0                           
3.75                          -7.932748200201559e-06        0.0                           
3.9999893579483214            -6.219877730368694e-17        0.0                           
4.25                          -1.618279466403743e-05        0.0                           
4.499980989422454             2.3559356931542046e-17        0.0                           
4.75                          -2.4771883254554945e-05       0.0                           
4.999972296762871             -1.7788649479527054e-17       0.0                           
5.25                          -3.366723766678717e-05        0.0                           
5.499963297746321             -5.170026130047418e-16        0.0                           
5.75                          -4.289066308330329e-05        0.0                           
5.999953948421466             -3.060824194085811e-17        0.0                           
6.25                          -5.253180413613507e-05        0.0                           
6.499944136650186             -2.2580893880405167e-16       0.0                           
6.75                          3.2477795561934114e-05        0.0                           
7.000031632128462             2.4463131753663085e-06        0.0                           
7.250002614398589             2.9749831743242435e-05        0.0                           
7.500028699772761             2.9813908835294888e-06        0.0                           
7.750003178233907             2.6353382827022703e-05        0.0                           
8.00002504811363              3.5925544322240004e-06        0.0                           
8.250003807394526             2.215786478728765e-05         0.0                           
8.500020569476787             4.245669356817227e-06         0.0                           
8.750004466437385             1.710466969158033e-05         0.0                           
9.000015230358585             4.90491386545836e-06          0.0                           
9.25000512029048              1.120951215418556e-05         0.0                           
9.500009069921479             5.537997590623934e-06         0.0                           
9.750005738297808             4.553320163725555e-06         0.0                           
10.000002179455656            6.1174213855028335e-06        0.0                           
6.3271402072891e-06           0.2999971952970742            0.0                           
0.24999459473397345           0.3000066976898842            0.0                           
0.5000068605625906            0.29998922930095345           0.0                           
0.7499864787663547            0.3000071739521995            0.0                           
1.0000073250859753            0.29998085868873403           0.0                           
1.2499779939480766            0.3000076193685966            0.0                           
1.5000077643364396            0.2999721626669017            0.0                           
1.7499691970543763            0.3000080553654983            0.0                           
2.0000082038407827            0.29996316216841534           0.0                           
2.249960088840619             0.30000851305751275           0.0                           
2.500008676363395             0.29995381373291835           0.0                           
2.749950602726449             0.300009026556536             0.0                           
3.000009215719425             0.29994400487659884           0.0                           
3.249940604421761             0.3000096270534883            0.0                           
3.5000045720809005            0.30003136421284254           0.0                           
3.7500304605684684            0.3000052226501322            0.0                           
4.000005580760288             0.3000284401177133            0.0                           
4.250027310914135             0.3000063529641752            0.0                           
4.5000067623449               0.3000247896361853            0.0                           
4.750023390297501             0.3000076146399184            0.0                           
5.000008052115707             0.3000203031757121            0.0                           
5.250018613819991             0.30000893621986197           0.0                           
5.500009377683984             0.3000149463576272            0.0                           
5.7500129718421               0.3000102476160987            0.0                           
6.000010671963124             0.30000875497251156           0.0                           
6.250006518942482             0.30001149161198387           0.0                           
6.500011886086691             0.30000180276948835           0.0                           
6.749999336025968             0.30001266189775444           0.0                           
7.000013034493056             0.2999942084006141            0.0                           
7.249991554486022             0.3000137200994478            0.0                           
7.500014040568464             0.2999860948672591            0.0                           
7.749983300107095             0.30001465367366564           0.0                           
8.000014949802743             0.2999775983827119            0.0                           
8.24997469587378              0.30001553063526293           0.0                           
8.50001581966085              0.29996879267961923           0.0                           
8.749965791528883             0.30001640687671155           0.0                           
9.000016710147092             0.29995968234606923           0.0                           
9.249956568505953             0.30001734896505233           0.0                           
9.500017689601897             0.29995020116431287           0.0                           
9.749946936679923             0.3000184252253045            0.0                           
10.000018824411026            0.2999402130699743            0.0                           
3.175300924330229e-05         0.6000068402273532            0.0                           
0.2500073118934301            0.6000300192650364            0.0                           
0.5000290514912084            0.6000083575511045            0.0                           
0.7500089260727905            0.6000268801691895            0.0                           
1.000025665457226             0.6000101373609144            0.0                           
1.2500107723633807            0.6000229569337202            0.0                           
1.5000214576346196            0.6000120806080121            0.0                           
1.7500127456017263            0.6000181625563351            0.0                           
2.000016367023809             0.6000140775032697            0.0                           
2.250014737098048             0.6000124868786576            0.0                           
2.500010407111896             0.6000160277522534            0.0                           
2.7500166539352655            0.6000059836647113            0.0                           
3.000003647074011             0.6000178624310339            0.0                           
3.2500184449727234            0.5999987511158191            0.0                           
3.4999962043745554            0.6000195593168514            0.0                           
3.7500200843111298            0.5999909347886108            0.0                           
3.9999882204136927            0.6000210699561255            0.0                           
4.250021536626112             0.5999826567270441            0.0                           
4.499979815966677             0.6000224331906944            0.0                           
4.7500228690488004            0.599974031453612             0.0                           
4.999971091029844             0.600023732232745             0.0                           
5.250024166719235             0.5999651155197309            0.0                           
5.499962078355501             0.6000250605637606            0.0                           
5.750025527803738             0.5999558929847925            0.0                           
5.999952737087084             0.6000265224886929            0.0                           
6.250027057408677             0.599946272924942             0.0                           
[...]
POINT_DATA  4141
SCALARS Con float 1
LOOKUP_TABLE default
0.0001680725666622284
0.00018059662413066798
0.00020537845163905055
0.000234309898389624
0.00026696265903024036
0.0003034239031449638
0.0003437596886509584
0.00038797184880856047
0.00043599150201941627
0.0004876777713112167
0.000542819396531885
0.0006011389297271408
0.0006622990815299707
0.0007259104575279334
0.0007915394216690737
0.0008587138443838711
0.0009269257873455014
0.0009956273525934464
0.0010643631020999045
0.001133774518642674
0.001211628370779129
0.001289682938639533
0.0013598899404294233
0.0014266570688321006
0.0014933897818027993
0.0015598878829450134
0.0016262447616832564
0.0016926370985779686
0.0017593649151916267
0.0018268289685460916
0.0018955188496364468
0.0019660027133521565
0.0020389185825315827
0.0021149662975930884
0.002194899571400209
0.002279517699957001
0.00236965556906965
0.002466157548891789
0.002569644072689975
0.0026773320539362298
0.0027393423618899695
0.00017064259132635557
0.00018345803821670132
0.00020874042408893724
0.00023821118899702964
0.0002714431531329156
0.0003085132181370809
0.0003494771749982507
0.00039432599861724294
0.00044297987673036596
0.0004952874068242658
0.0005510277973666575
0.0006099158470066669
0.000671609503031193
0.0007357198039253592
0.0008018232538430044
0.0008694785652295392
0.0009382526727067342
0.0010078047242696344
0.001078025139397707
0.0011506541870632246
0.0012241069836988498
0.001296334472878758
0.0013664661499763256
0.0014354181507279344
0.0015029307123988938
0.001569787319589797
0.0016362713013686467
0.0017026951168504015
0.001769422884918665
0.0018368944030772894
0.0019056256639106743
0.0019762051167345708
0.0020492878241211506
0.0021255887573055614
0.0022058755325668478
0.002290960417365395
0.0023816903865322412
0.00247892127274998
0.002583280491962515
0.0026920307144999737
0.002754725267330506
0.00016919444963121454
0.00018200440552463445
0.00020734020494720214
0.0002369385511257249
0.0002703624171141019
0.0003076849595894007
0.00034895677555517323
0.00039416323222133586
0.0004432187795967356
0.0004959666175527766
0.000552181601626454
0.0006115764027802228
0.000673811193920262
0.0007385075509832627
0.0008052685705264984
0.0008737093815739513
0.0009435138073284477
0.00101450022095768
0.0010869186338587913
0.0011588532945260345
0.001227645994111291
0.0012962915492727147
0.0013670265589111811
0.0014368085292381337
0.0015052260362364862
0.0015724913157226439
0.0016390511472929997
0.0017053057431741642
0.0017716854434128143
0.0018386714641654084
0.0019068082424260873
0.001976705849632135
0.0020490380014650013
0.0021245376414323757
0.0022039910815876006
0.0022882309589837765
0.0023781269552629503
0.002474560124734134
0.002578188869732415
0.002686288635350343
0.0027486301821596565
0.0001666845727558767
0.0001795135948146152
0.00020494975984471924
0.00023475944825898347
0.0002685026738891072
0.00030624492217224796
0.00034802805333335017
0.00039382772706343926
0.00044354819300024343
0.0004970224389843306
0.0005540157057701958
0.0006142324643514319
0.0006773271476155678
0.0007429190973456534
0.000810612072912293
0.0008800184874377754
0.0009507735386288549
0.0010225354782234818
0.0010944432266296472
0.0011653959743819094
0.0012352962891238595
0.0013045082648132792
0.0013735476457168937
0.0014425983752118455
0.0015107585487747252
0.0015778641509434344
0.0016441069414111964
0.0017098459215878165
0.0017755141358842454
0.001841611899377792
0.00190870593252264
0.0019774294842284153
0.0020484804379232893
0.002122617740380903
0.0022006564755405298
0.0022834616663065933
0.0023719397038863654
0.00246701344093329
0.002569388095860669
0.0026764155731579965
0.0027382345666439956
0.00016313634938363322
0.00017599335259852367
0.00020157767050948651
0.00023169153024670358
0.00026588947625821814
0.00030422642450731845
0.0003467314809239152
0.00039336607846487156
0.00044401912306809123
0.0004985074382199613
0.0005565794655315651
0.0006179222027833983
0.0006821712891562461
0.0007489236626467521
0.0008177510461616077
0.0008882076851069111
0.0009598231332008146
0.0010320064773517922
0.0011040848508234247
0.0011754969893001674
0.0012459273109614864
0.0013155008863248473
0.0013844266584987703
0.0014526415841425572
0.0015200298102426722
0.001586409649295342
0.0016518580592529187
0.0017166435136882847
0.0017811661787560202
0.0018459218329645365
0.0019114884603010868
0.00197851938651181
0.0020477387180365555
0.0021199369647390874
0.002195966282523416
0.00227673479346961
0.0023631987226194234
0.0024563382192138677
0.0025569261988159825
0.002662420819235215
0.0027234852970324723
0.00015851826945286878
0.00017141713125003397
0.0001972027576854948
0.00022771947191567804
0.0002625138144307107
0.0003016264561263398
0.00034506959120924555
0.0003927856712961298
0.0004446427996874412
0.0005004352116532838
0.0005598867567467258
0.0006226572046115638
0.0006883509511152725
0.0007565270332506991
0.0008267079148665052
0.0008983834658897261
0.0009710002311384771
0.0010439714173775753
0.0011167188755310511
0.0011887562098444845
0.0012597997895375307
0.0013297437446735025
0.0013985775585329749
0.0014662958915724535
0.0015328358973446463
0.001598191141780906
0.0016624503645941947
0.0017258540335658547
0.001788777682857993
0.0018517102146191826
0.0019152373888194649
0.0019800316825410694
0.002046845414225807
0.0021165054010626695
0.0021899080876288594
0.0022680143599660106
0.0023518424673938153
0.0024424450055516088
0.002540681458735545
0.0026441483298593822
0.0027042097431098037
0.00015279871592317575
0.00016575618526845783
0.00019180273296047674
0.00022282809194836784
0.0002583677578181985
0.0002984443072268923
0.00034304876940676165
0.00039209990390061416
0.0004454396674316498
0.0005028335067247473
0.0005639734067184792
0.0006284834750278504
0.0006959276397268452
0.0007658185325160897
0.0008376262847977464
0.00091078570289836
0.0009847077563997632
0.0010588004844849642
0.0011325088445952032
0.0012053690016428872
0.0012770432566807325
0.0013473271043481561
0.0014161129900286122
0.0014833451754605244
0.001549012690747024
0.0016131581775560664
0.0016759203891999759
0.0017375528010613688
0.001798432635625859
0.0018590531588388887
0.001920013161793718
0.001982007729186269
0.0020458212110661795
0.0021123218039650494
0.002182457040744499
0.0022572494025762655
0.002337790412008219
0.0024252192163961633
0.0025204999570075065
0.0026214005952074405
0.0026801845619846727
0.000145949868605607
0.00015898561694119883
0.00018535876856932388
0.00021700559830482228
0.0002534469067199675
0.0002946831630899177
0.00034068010783307867
0.0003913284269863871
0.0004464390763971414
0.0005057431942604076
0.0005688946190054902
0.0006354749448956341
0.0007050009161994545
0.0007769337996285747
0.0008506903824581967
0.0009256566393953532
0.0010012057854540146
0.001076723987174518
0.0011516434244581552
0.001225475872449677
0.0012978381096522462
0.0013684575710197807
0.001437162066180896
0.0015038648807887709
0.0015685554910233018
0.0016313073070528211
0.001692289741580679
0.0017517827193704674
0.0018101820685602443
0.0018679987891462866
0.0019258535802914804
0.0019844704782887887
0.0020446712452141928
0.0021073709780491737
0.002173574724887148
0.002244374514330987
0.00232094519575438
0.00240452529261575
0.002496200739053726
0.0025939456427560834
0.002651147280480415
0.0001379547991973623
0.00015109042600860246
0.00017786040803390062
0.00021024712178190858
0.000247752486305104
0.0002903508193798086
0.0003379787999505244
0.0003904952731581915
0.0004476761231525006
0.0005092135282896936
0.0005747178373862187
0.0006437222272115196
0.0007156902867822592
0.0007900265708611471
0.0008660903562737438
0.0009432130335493962
0.0010207199348583429
0.0010979565623972735
0.0011743174035456691
0.0012492733289872395
0.0013223918356372066
0.0013933471668082693
0.0014619207712563403
0.0015279970067554039
0.0015915606726965867
0.0016526982670113856
0.0017116037300500752
0.0017685837862648937
0.001824061293533634
0.0018785747615701746
0.001932775400596178
0.0019874231093849315
0.002043382820913676
0.0021016218623366193
0.002163208433049661
0.002229310775127626
0.0023011955155001697
0.002380211683978331
0.002467582793442069
0.002561524837585651
0.0026168039559476206
0.00012881586949925168
0.0001420730066394829
0.00016931124776385596
0.00020255848066685973
0.00024129315218193376
0.00028545955085285937
0.0003349621626307943
0.00038962516632637655
0.00044918633673419073
0.0005132952003258306
0.0005815139691558433
0.0006533217173424253
0.0007281222494996106
0.0008052559723333
0.0008840159528100803
0.0009636682151043444
0.0010434759596780214
0.0011227266699482422
0.0012007599884730374
0.0012769932690849016
0.0013509417628790198
0.001422231507100948
0.0014906053008669315
0.001555924110499057
0.0016181666920663783
0.0016774297534057174
0.001733928785612892
0.0017879990167759413
0.001840095319964339
0.0018907907576706316
0.0019407740903554349
0.0019908471936098088
0.0020419231994404604
0.0020950259684347082
0.002151291015292993
0.0022119675589558616
0.0022784202369697574
0.0023521173725208704
0.0024344337264091496
0.0025238634742560536
0.0025768408077342345
0.00011856481427625178
0.00013196193903233246
0.0001597353506031133
0.00019396002970078314
0.00023408624023180572
0.0002800248354035248
0.00033164603470212047
0.0003887378749378329
0.00045099834344231504
0.0005180317037751228
0.0005893479123748383
0.000664365958278565
0.0007424218565845891
0.0008227817530623289
0.0009046602137897703
0.0009872433368726076
0.0010697157341788802
0.0011512897733085025
0.0012312348052135771
0.0013089038063366263
0.00138375507954629
0.0014553676600509804
0.001523450384549418
0.0015878457756436132
0.0016485305202911065
0.0017056140643437548
0.0017593363985035741
0.001810065262057284
0.0018582930512400385
0.0019046335370983968
0.0019498189422792762
0.0019946980058493367
0.0020402356871334773
0.002087514916874979
0.0021377404756040912
0.002192244680338421
0.0022524934129161097
0.0023200798823417973
0.0023965407562571333
0.0024806844946777167
0.0025309393189543207
0.00010727445203017732
0.00012082203993423809
0.00014918417741388535
0.000184490290136477
0.00022615809164713724
0.00027406254117663984
0.0003280391440262704
0.00038784025384276297
0.0004531242244583282
0.0005234487828379121
0.0005982680214651183
0.0006769342703175842
0.0007587059115645803
0.0008427617358781783
0.000928221792602118
0.0010141740072406845
0.0010997050862567915
0.0011839335872235038
0.0012660425727462046
0.0013453092366416278
0.001421129258170342
0.0014930345463352297
0.0015607040511306475
0.0016239683862490286
0.0016828095607705968
0.0017373573701549288
0.0017878838432589868
0.001834796809083388
0.0018786335434899345
0.0019200552196317977
0.0019598429378605733
0.001998896013532964
0.0020382330741930306
0.0020789962826825675
0.002122458702222365
0.002170034407368142
0.0022232898921700516
0.0022839447072773426
0.002353704029414996
0.0024317254934418217
0.002478795210736538
9.507178741969215e-05
0.00010876533803713777
0.0001377436554447588
0.0001742089006821546
0.00021754295314822727
0.0002675840287960037
0.00032413490184865523
0.0003869154352098576
0.0004555470172940654
0.0005295413581440742
0.0006082937115376756
0.0006910823557186104
0.0007770758445235607
0.0008653488124238845
0.0009549061943916208
0.001044714715942887
0.001133739570018271
0.0012209834756913272
0.001305524935713093
0.0013865526125155406
0.001463393288929702
0.0015355318806396648
0.0016026230128894589
0.0016644948262750441
0.00172114635683501
0.0017727403297609027
0.001819593275288094
0.0018621646598723477
0.0019010466755065138
0.0019369558356804688
0.0019707275175280285
0.0020033141856488144
0.0020357878795634722
0.0020693472195663014
0.0021053288721168168
0.002145223014081316
0.002190691323111713
0.002243576003136028
0.002305752170653186
0.0023767590375224083
0.0024201413431384202
8.215179880315919e-05
9.596230657255371e-05
0.00012554068412867875
0.00016319823920439187
0.0002082798278399277
0.00026058860909149
0.00031990005766194593
0.00038590856039913787
0.00045820470835383054
0.0005362572144563295
0.0006194004230355494
0.0007068300835428976
0.0007976095652563035
0.0008906875711652566
0.0009849270874518266
0.0010791439045190483
0.0011721517628472576
0.0012628102827555005
0.0013500714793083738
0.001433020861491039
0.001510910018682301
0.0015831787598466049
0.0016494663618116523
0.0017096127390378326
0.0017636514111494506
0.0018117966761489154
0.0018544276427832963
0.0018920715990584011
0.0019253888580810057
0.0019551608493097897
0.0019822827213662325
0.002007761388491689
0.002032719550994265
0.0020584059260694764
0.0020862115837902537
0.0021176918967765407
0.002154592483144121
0.0021988684180364055
0.0022525599015931277
0.0023156161791414837
0.002354774533130246
6.879057907457575e-05
8.265209012522016e-05
0.00011274805652692484
0.00015156287941472642
0.00019840672725231375
0.0002530529242233425
0.0003152598156301
0.00038470861246438063
0.00046097021705029614
0.0005434769632746906
0.000631501548466642
0.000724147264171158
0.0008203525765979556
0.0009189115269793388
0.0010185095443333977
0.001117772202362529
0.0012153227450347197
0.001309842917479611
0.001400131229527254
0.0014851532840578687
0.0015640800418582246
0.0016363117268601644
0.0017014870695024695
0.0017594793444102009
0.001810381969152724
0.0018544872362619513
0.0018922617658655879
0.0019243221705677201
0.0019514136610353557
0.0019743938226348913
0.0019942229762611365
0.0020119621014488965
0.002028778736357443
0.0020459610270936483
0.0020649398139275877
0.002087318328408947
0.002114908027300165
0.0021497598366209208
0.00219406735297973
0.0022482126846811684
0.002282585747077145
5.535557954055243e-05
6.914974330430984e-05
9.95862383139293e-05
0.00013942615515465765
0.0001879520941383444
0.00024491737088181776
0.0003100795152581902
0.0003831262654087983
0.0004636272325781845
0.0005509901889606726
0.0006444274247015153
0.0007429378910167371
0.0008453093522066892
0.0009501426781673346
0.0010558976404433343
0.0011609567132825343
0.001263700688885681
0.0013625881703758556
0.0014562304925933903
0.0015434544619215135
0.00162334741229908
0.0016952818772147482
0.0017589201011011554
0.0018142010637978397
0.001861314544028779
0.001900667325017219
0.0019328468143178178
0.001958586534520443
0.0019787370059587833
0.0019942445116317895
0.002006139199616893
0.0020155332625098827
0.002023629398784646
0.0020317394599670365
0.0020413131459317696
0.0020539765940339634
0.002071580068760819
0.002096245665823631
0.002130300405309081
0.002174577119938192
0.0022035933863606126
4.23089492692828e-05
5.584728082560838e-05
8.632051096304351e-05
0.00012692331959220996
0.0001769243925496213
0.00023607057709357565
0.00030414323476482655
0.0003808681609967554
0.00046584245556366877
0.0005584684569962481
0.0006579022270496272
0.0007630240130169557
0.0008724367461266084
0.0009844958350786232
0.0010973695560945432
0.0012091249733922965
0.001317830176756392
0.0014216609528736575
0.001518999279231274
0.00160851271184959
0.001689207137238053
0.001760449958419775
0.0018219651947167454
0.0018738055403853733
0.0019163086125405307
0.0019500451803647584
0.0019757666059447574
0.0019943574111151315
0.002006796996798143
0.002014133164486198
0.002017468466962304
0.0020179596824104165
0.002016830014688545
0.002015393510468993
0.002015091256043419
0.0020175392738991235
0.002024588890818241
0.002038394241166612
0.0020613935490826274
0.002094879027447777
0.002117974892918349
3.0201268217796634e-05
4.320505288590191e-05
7.325052081041409e-05
0.00011419493986422652
0.00016530274049304629
0.000226331740974301
0.00029713013122570353
0.000377509368351558
0.00046713634592237944
0.0005654372454409822
0.0006715207549595985
0.0007841313921624906
0.0009016420538379346
0.0010220911999903825
0.0011432644880848884
0.0012628134003450431
0.0013783970910860642
0.0014878289888027969
0.0015892090069966577
0.001681025056867406
0.0017622136923163831
0.001832177176779613
0.0018907611899180257
0.0019382025014767167
0.0019750583128260372
0.0020021290141359603
0.0020203842953186815
0.002030899880408246
0.0020348093269268036
0.00203327290738999
0.0020274638148784735
0.0020185708895731386
0.0020078165783998818
0.00199648888547364
0.0019859863578988316
0.0019778758401070157
0.0019739630112419774
0.001976377722561992
0.0019876089901774683
0.002009458229751072
0.0020261091076008457
1.963566953071756e-05
3.172555862689207e-05
6.070769586554385e-05
0.00010138585268197606
0.00015302009125107402
0.0002154297029438366
0.00028859230041075856
0.00037246935323534045
0.0004668576244115148
0.0005712512141288642
0.0006847287012392284
0.0008058802157325972
0.0009327893596873825
0.0010630796881450294
0.0011940269280581392
0.0013227265244073897
0.0014462951331639753
0.0015620768841408204
0.0016678242725827186
0.0017618288726854534
0.0018429882043123403
0.001910807543318577
0.0019653466851669342
0.0020071284108680643
0.002037027830480255
0.0020561599131188263
0.002065778452947589
0.0020671948428442086
0.002061720536881079
0.0020506337120169424
0.002035168515177882
0.002016524325072313
0.0019958925479412197
0.0019744985601286838
0.0019536576248134854
0.0019348437890259705
0.001919772311818579
0.0019104883832607386
0.001909443779995391
0.0019188340778782719
0.001928541763006984
1.1309759607500874e-05
2.196291979135108e-05
4.904964270020764e-05
8.861462368878062e-05
0.00013995443267939513
0.00020301615894447288
0.0002779769032608331
0.00036503568122184417
0.00046420437374251184
0.0005751129579098303
0.0006968430324979428
0.0008278136966181152
0.0009657435222955541
0.0011077071215108538
0.00125029109384053
0.0013898354290139742
0.0015227264231138485
0.0016456939275544568
0.0017560634792531814
0.0018519250620804436
0.00193220013977151
0.001996610806086605
0.0020455723267280073
0.0020800394732953097
0.002101337272695876
0.0021110014088053936
0.002110644738666808
0.0021018581384707915
0.0020861471787611986
0.002064901818517064
0.0020393942852581586
0.00201079996091397
0.00198023684770129
0.0019488205505372906
0.0019177332070160445
0.001888306209909586
0.0018621166870518846
0.0018411006800781776
0.0018276109135940517
0.0018241728686603474
0.0018264610010003453
0.00012928705370753916
0.0001927293560761514
0.00035969792058062336
0.000713249434189537
0.0008553692212231808
0.001160840527207056
0.001316227120172729
0.0016096672704171105
0.0017392782722391608
0.0019490932565631837
0.0020264052509665134
0.0020851575210858913
0.00212631121684511
0.0021514153170199024
0.0021623649221118313
0.002161190313191926
0.0019602700009590684
0.0019197827679062363
0.001772520396508733
0.0017476372330630311
0.0017274819141026552
6.030775191328939e-06
1.5404480622567444e-05
4.0443820977074e-05
7.856538550876264e-05
0.0002693594774238959
0.00046404318198729836
0.0005822011803802585
0.0010057847383402802
0.001467332911806667
0.0018530883543521907
0.002149894565696994
0.002130344560853983
0.0021042116726780417
0.002072953866898856
0.002037830014470755
0.0019999379214579102
0.0018794790127105855
0.0018405035418381543
0.0018042560415189673
0.0017322864903113158
3.726669108932251e-06
1.1540025810404915e-05
3.4140785492185634e-05
7.023659085712822e-05
0.00011934166700695293
0.00018172308066510346
0.00025806252446720923
0.00034915094377885634
0.00045555613041620634
0.0005772987073045339
0.0007135562589314741
0.0008624411513227545
0.0010209038446095868
0.0011848081080504517
0.001349197897580556
0.0015087322332544952
0.0016582171421740872
0.0017931313535873305
0.001910041571508376
0.0020068343488068934
0.002082743527982501
0.00213820147059995
0.002174574675518989
0.002193852451342445
0.0021983472293350477
0.0021904447156687466
0.002172421590567714
0.002146331933735642
0.0021139536454659533
0.0020767819672000173
0.0020360569638168146
0.0019928145160654585
0.0019479530549697931
0.0019023122005519093
0.00185676214945244
0.0018123051085831867
0.0017701934488075885
0.001732064957717888
0.0017001110777940397
0.001677093390085613
0.0016678853640679189
2.6439481752904757e-06
8.969393338831605e-06
2.922581789846265e-05
6.331996510827469e-05
0.000110814234578278
0.00017210812535441402
0.0002481280922722975
0.0003399618404509793
0.00044847885089850957