# vtk DataFile Version 2.0
time_10.vtk
ASCII
DATASET UNSTRUCTURED_GRID
POINTS   4141  float 
6.014717896093896e-05         -7.287209624180929e-18        0.0                           
0.2499999999999991            5.7392037154486345e-05        0.0                           
0.5000557920475389            -4.712349319394965e-18        0.0                           
0.75                          5.208523242571041e-05         0.0                           
1.0000499578780753            -2.712995795643709e-19        0.0                           
1.25                          4.5116488656499494e-05        0.0                           
1.5000423923306516            6.61419890913325e-16          0.0                           
1.75                          3.6325739315493735e-05        0.0                           
2.0000329843750158            -2.825600207170962e-17        0.0                           
2.25                          2.570224223967235e-05         0.0                           
2.5000217740992157            1.697920298134863e-17         0.0                           
2.75                          1.3395618715125813e-05        0.0                           
3.000008983639346             9.118913252725008e-18         0.0                           
3.25                          6.956454923796772e-17         0.0                           
3.49999465836522              4.569089161201007e-17         0.0                           
3.750000000000001             -1.600888016736686e-05        0.0                           
3.9999785491046396            -9.510109953304622e-17        0.0                           
4.25                          -3.260884908501531e-05        0.0                           
4.499961678526245             1.5042405437279217e-16        0.0                           
4.75                          -4.999987158298598e-05        0.0                           
4.999944037886255             -1.4650654290233057e-16       0.0                           
5.25                          -6.813390676482042e-05        0.0                           
5.49992565126813              -1.2095295217655545e-16       0.0                           
5.75                          -8.706239795934506e-05        0.0                           
5.999906423056361             5.3795196237813667e-17        0.0                           
6.25                          -0.00010697321233493884       0.0                           
6.499886119825457             5.790641818374651e-17         0.0                           
6.75                          5.9937511062375794e-05        0.0                           
7.000058631946183             3.8362718156800615e-06        0.0                           
7.250004219605953             5.558876277325588e-05         0.0                           
7.500053824870666             5.046511191839967e-06         0.0                           
7.750005485965517             4.975701166173803e-05         0.0                           
8.00004743567804              6.40491089856672e-06          0.0                           
8.250006879222886             4.218811994498913e-05         0.0                           
8.500039255403678             7.844256784300637e-06         0.0                           
8.750008329730518             3.2769784257870265e-05        0.0                           
9.000029221413266             9.294016501671099e-06         0.0                           
9.250009768083311             2.1538017724598135e-05        0.0                           
9.500017417765264             1.068866893510387e-05         0.0                           
9.75001113039893              8.663632906809714e-06         0.0                           
10.000004028044541            1.1965872822732456e-05        0.0                           
1.246430373991632e-05         0.29999418916943954           0.0                           
0.24998900530142804           0.30001332252284113           0.0                           
0.500013688212694             0.29997825424767277           0.0                           
0.7499727238167175            0.30001439947141617           0.0                           
1.0000147454326755            0.2999613848393799            0.0                           
1.2499555849785313            0.3000154229934186            0.0                           
1.5000157580507156            0.2999437381847186            0.0                           
1.7499376926410157            0.30001643153403834           0.0                           
2.000016774837941             0.2999253486688238            0.0                           
2.249919041604339             0.3000174874489085            0.0                           
2.500017861957575             0.29990612240296954           0.0                           
2.7498994911064134            0.30001865987220977           0.0                           
3.0000190878453186            0.2998858253532959            0.0                           
3.2498787628979606            0.30002001169638004           0.0                           
3.500006936471401             0.30005800989549725           0.0                           
3.750056571434299             0.30000842719652426           0.0                           
4.000009236813466             0.30005321895848114           0.0                           
4.250051280745484             0.30001096519497233           0.0                           
4.500011874636166             0.30004683185713454           0.0                           
4.750044307063049             0.3000137584446047            0.0                           
5.000014722169493             0.30003863535503744           0.0                           
5.250035485425197             0.30001666681533734           0.0                           
5.500017637575991             0.3000285631095658            0.0                           
5.750024797774517             0.3000195525085179            0.0                           
6.000020488422864             0.3000166849196239            0.0                           
6.250012348223401             0.300022302161265             0.0                           
6.500023180561544             0.3000031211093092            0.0                           
6.749998262421119             0.30002494459184104           0.0                           
7.000025801339285             0.29998809923439085           0.0                           
7.24998280476393              0.30002736420073417           0.0                           
7.500028093451851             0.2999718551578735            0.0                           
7.749966226276273             0.30002949663219175           0.0                           
8.000030178167213             0.2999546988709367            0.0                           
8.249948809507282             0.3000315201491567            0.0                           
8.500032189320024             0.29993678957089304           0.0                           
8.749930657844825             0.30003354829060547           0.0                           
9.000034248441795             0.2999181343866165            0.0                           
9.249911730508412             0.3000357164418682            0.0                           
9.50003649460988              0.29989859445572037           0.0                           
9.749891839535058             0.30003816325055266           0.0                           
10.000039062140887            0.29987788772074636           0.0                           
5.825831059168941e-05         0.6000103695057745            0.0                           
0.25001145576083583           0.600055544843052             0.0                           
0.5000539613994721            0.600013828703467             0.0                           
0.7500151043797607            0.6000502747430406            0.0                           
1.0000481497699214            0.6000178001625145            0.0                           
1.25001920502738              0.6000432955804513            0.0                           
1.5000405556109402            0.6000220887150906            0.0                           
1.750023551459517             0.6000344371208711            0.0                           
2.000031058866816             0.6000264800558194            0.0                           
2.2500279316117324            0.6000236768794189            0.0                           
2.5000196818886438            0.6000307785045836            0.0                           
2.7500321648555293            0.6000111104020353            0.0                           
3.0000065454931564            0.6000348586359433            0.0                           
3.2500361704667515            0.5999969142909772            0.0                           
3.4999918764393936            0.6000387030243416            0.0                           
3.7500399003310405            0.5999813934922807            0.0                           
3.9999759637206416            0.6000421505986043            0.0                           
4.250043219568549             0.5999647801933223            0.0                           
4.499959045719806             0.6000452829261832            0.0                           
4.750046290125083             0.5999473239405043            0.0                           
4.999941343817309             0.6000482893354292            0.0                           
5.250049296045567             0.5999291488293023            0.0                           
5.499922929677957             0.6000513627901632            0.0                           
5.750052438950551             0.5999102226813066            0.0                           
5.999903718866329             0.6000547167252617            0.0                           
6.2500559334795955            0.5998903568197794            0.0                           
[...]
POINT_DATA  4141
SCALARS Con float 1
LOOKUP_TABLE default
0.00038740472346538324
0.0004344917238054925
0.0005253815191467273
0.0006330418763186138
0.0007563856427601339
0.0008960275141648904
0.0010524641152572008
0.0012259196853147308
0.0014163174551519249
0.0016232703401011278
0.001846082839131624
0.0020837625685124358
0.0023350391151415613
0.0025983860184605715
0.002872038639558465
0.0031539956334498253
0.0034419932037263483
0.0037334888077224892
0.004026275021506195
0.004327024634625037
0.0046880566517371975
0.00505154953198174
0.005362335469034658
0.005658068849409251
0.005956872760180973
0.006257427742986394
0.0065597530295517644
0.006864293970256098
0.0071721041402563745
0.007484718616447993
0.007804087125464395
0.00813252002339593
0.00847264449934536
0.008827364796019746
0.009199823441044176
0.009593361204454616
0.010011470318779093
0.010457680636875018
0.010934550055162246
0.011429560580366692
0.011716133644202303
0.0003929121723431439
0.00044115527189801413
0.0005339264047936244
0.0006436764025696387
0.000769319082348939
0.0009114312351180085
0.0010704692984465072
0.0012466141609406242
0.0014397450106449154
0.0016494325187454484
0.001874943940536434
0.002115259252758939
0.0023690976927465716
0.0026349544848039115
0.0029111500246931394
0.0031959056525333483
0.003487492224147722
0.0037847137763625414
0.004088156458882762
0.004408040457363759
0.004736725820348777
0.00506264431229099
0.005379218667710467
0.005689036915060798
0.005993542598013683
0.006297004008539063
0.006600744154042943
0.006906031082535952
0.007214301970876493
0.007527314235697703
0.007847160902213629
0.00817625792612737
0.008517318505400922
0.008873321997242684
0.009247479373564115
0.009643195079119028
0.010064020702311762
0.010513542074924866
0.010994350587854326
0.01149412070991431
0.011783790470268023
0.00038855365811262205
0.00043669911153424573
0.000529541663037931
0.0006396225871944283
0.0007658366374896327
0.0009087556391629925
0.0010688259390809367
0.0012462172318429407
0.0014407980916358795
0.001652131828924032
0.0018794858011514967
0.00212185492825429
0.002378001782010756
0.0026465188767687826
0.002925927313514814
0.003214842118384769
0.0035122935783428325
0.003818165199279695
0.004134555006365962
0.004451634623626545
0.004750170881630827
0.005050207915451069
0.005369347629794468
0.005686560109082658
0.005997891340285926
0.00630502628733124
0.006610341245942541
0.006915730674813757
0.007223069562607525
0.007534382475066884
0.007851938031720506
0.008178278899628447
0.00851622185323983
0.008868841447154304
0.009239444217991551
0.009631535886691595
0.010048778216796311
0.010494875891349687
0.01097255654547693
0.01146952338978167
0.011757627164849146
0.0003809877165341565
0.0004290878667505122
0.0005220751438127492
0.0006326936603740727
0.0007598466341064045
0.0009040927809229619
0.00106586065870832
0.0012452989975757186
0.0014422545758089095
0.0016562705770545875
0.001886599265048849
0.0021322301951095636
0.0023919364704749766
0.002664342975355265
0.0029480203395513597
0.0032416045424626476
0.0035438591533144405
0.0038535700383543494
0.004166449841626074
0.0044755462718624305
0.004780970680021026
0.005085681521282155
0.005393438606395994
0.005705913137483722
0.006016767804781001
0.006324298565263657
0.006629270112063961
0.0069332724714794665
0.007238186923800836
0.007546144899569734
0.007859538725852887
0.008181035848583687
0.008513579139134227
0.008860375287468171
0.009224873816947792
0.00961073814471979
0.010021804849334702
0.010461971712610364
0.010934174045358467
0.011426437681135132
0.011712234852953949
0.00037032045878262603
0.0004183543078126598
0.0005115616822843913
0.0006229496447342168
0.0007514303042475778
0.0008975437871141293
0.0010616911299508418
0.0012439880261370258
0.0014442442751219156
0.0016619632367550305
0.0018963549017930916
0.002146362932128822
0.0024107057023849536
0.002687928497640423
0.0029764563417842686
0.003274607887875452
0.003580500247418215
0.0038914471849775404
0.004203954631606493
0.004515235266183307
0.00482379491214541
0.00513098805749015
0.005438633136218879
0.005746433845117629
0.006053492987589723
0.006358161399640233
0.006660275895620775
0.006960790103621053
0.007261325467799674
0.007563946852106744
0.00787108251786602
0.008185490442608965
0.008510238976907248
0.008848688153475408
0.009204467398291408
0.0095814474059318
0.009983700648179583
0.010415390579365693
0.010879758006205269
0.011365305751014607
0.011647805818451755
0.00035649006488405754
0.0004044513161683853
0.0004979612715539839
0.0006103592364928769
0.0007405649956640718
0.0008890920574519494
0.0010563034573496353
0.0012422685802899306
0.00144674328429165
0.001669168662777842
0.0019086816544090902
0.0021641367857988467
0.002434136764204027
0.0027170655764180767
0.0030111089216674843
0.0033142383749382893
0.0036241059536197074
0.00393803545668188
0.00425329989580921
0.004567572108186462
0.004879709881137864
0.005189546308092488
0.005497348675850644
0.005803208478765994
0.0061065604649138995
0.006406946974619012
0.006704292647625604
0.006999307354714156
0.007293400893490017
0.007588541612751347
0.007887157143922718
0.00819207652015416
0.008506493393223232
0.008833938180743454
0.009178252054041006
0.009543558330428711
0.009934224227002323
0.01035475306920336
0.01080878678096032
0.01128544618825121
0.011563552501033839
0.00033945488026784055
0.0003873399499487648
0.0004812432662178275
0.0005949005074085687
0.0007272367725608655
0.0008787302262312328
0.0010496952704060194
0.0012401421743642917
0.0014497568138304075
0.0016778972849876947
0.0019236005297491767
0.002185597918521439
0.0024623373507055286
0.002752006610664788
0.0030525506753418074
0.0033616756028307837
0.003676873993871223
0.003995523456124592
0.004315096754665667
0.004633500129192648
0.004949266479517837
0.005261597351134397
0.005570108914220648
0.005874517741644092
0.006174583676600319
0.006470157509798002
0.006761473214684753
0.007049291364035985
0.007334978672633102
0.007620473669005748
0.007908227592327637
0.008201152369361664
0.008502580892257687
0.008816235739852265
0.009146201808297004
0.009496898545594571
0.00987304433661716
0.010279553529878332
0.010720555912609215
0.011185936269237346
0.011458436186321275
0.0003192079634826003
0.00036701382684156876
0.00046140326475248256
0.0005765729457821379
0.0007114491014392865
0.0008664654778121953
0.0010418781931567913
0.001237627709485649
0.0014533170980226507
0.0016882054117640358
0.001941209786648101
0.002210915918211933
0.0024955959329409382
0.002793232016290889
0.0031015450677639687
0.003418036461772466
0.003740058843662582
0.004064936478719692
0.004390142723581951
0.0047134822485201625
0.005033233639843368
0.005348165539213179
0.0056574579153080415
0.005960595952363919
0.006257303296012974
0.00654759457122912
0.006831863309642375
0.0071109941973594845
0.007386417974384185
0.007660123879367987
0.007934637140715404
0.008212985951194237
0.008498669583452275
0.008795630804290926
0.009108231625213627
0.009441229509776123
0.009799746925455322
0.010189175251867523
0.010614217003798658
0.011065681938439363
0.01133122069199933
0.00029580429616842024
0.00034352172375186416
0.00043848114292347785
0.0005554097331048497
0.0006932293135217487
0.0008523203222138272
0.0010328730048603332
0.0012347509186031644
0.0014574663471315704
0.0017001692001543808
0.0019616440911788373
0.0022403165822211814
0.002534269669267149
0.0028412717386203995
0.0031588190581920595
0.0034841983966215307
0.003814577422186625
0.0041471267790826015
0.004479163081240034
0.004808290950381923
0.005132505665121167
0.005450240027632257
0.005760356039592698
0.006062112886677283
0.006355152862904523
0.006639516970999672
0.006915695727898583
0.007184681815124577
0.007448011514648594
0.007707779574476477
0.007966633918729557
0.008227758093680992
0.008494850435308477
0.008772104573690582
0.0090641924059846
0.009376247958124577
0.009713845547818225
0.01008291445474374
0.01048881242053941
0.01092344368252284
0.011180498509166375
0.000269391219290237
0.00031699438443818465
0.0004125806728682224
0.0005314898400821989
0.0006726329070845579
0.0008363290231956762
0.0010226982353028242
0.0012315251266853077
0.0014622292841350336
0.0017138477719360824
0.001985025820082937
0.0022740183655941015
0.002578705387137895
0.0028966240533463616
0.0032250209082073274
0.0035609273068063535
0.003901259588181225
0.0042429405401729235
0.0045830319576215155
0.004918860261533089
0.005248117796881908
0.0055689275257878096
0.005879873661117185
0.006180011881678949
0.006468875572106082
0.006746491607593041
0.007013404727388518
0.007270705560629955
0.00752005161696746
0.007763677059584709
0.00800439069984829
0.00824556693565029
0.008491134317391692
0.008745565711062012
0.009013871402575065
0.009301594190121127
0.009614800298445227
0.009960009815681254
0.010343311802639778
0.01075788084528148
0.011004738737981017
0.00024024283205926493
0.00028767406540174394
0.0003838901900811506
0.0005049491292517201
0.0006497447889566667
0.0008185289578806438
0.0010113519387501251
0.001227923970874226
0.0014675774955418704
0.0017292400047187713
0.002011415567586664
0.002312179519191029
0.002629190935666756
0.0029597269508093585
0.0033007418843680435
0.0036489523578096734
0.004000946506789091
0.00435331127592159
0.004702767114194831
0.005046296696965333
0.005381254631811302
0.005705450272030272
0.0060172027550453285
0.006315374056952363
0.00659938908072228
0.006869249871812912
0.007125548030012944
0.007369474377206737
0.007602824548829525
0.00782799894905907
0.008047998302996167
0.008266417468936398
0.00848744097758147
0.008715842920062913
0.008956992290139399
0.009216862787058711
0.0095020409928051
0.009819678504566949
0.010176660846328475
0.010567611466591655
0.010802352558322719
0.00020879718116515185
0.00025594577628766077
0.00035270302136603454
0.00047598920479528225
0.0006246762866087607
0.0007989459475785943
0.000998785986097939
0.0012238458559313832
0.0014733858684259642
0.001746235512209477
0.002040761326077629
0.0023548509328021644
0.0026859196630327096
0.0030309449107360814
0.0033865311170204263
0.003749005265677718
0.004114539002314598
0.004479289485992032
0.004839547760737666
0.005191881874837975
0.00553326306405314
0.005861166948096422
0.006173646790792439
0.006469380820672969
0.006747698509356469
0.007008591765043455
0.007252715915623016
0.00748138394206732
0.007696556572464786
0.007900830534000584
0.008097427737166473
0.008290188625955052
0.008483572592634839
0.008682667641566949
0.008893209935934282
0.009121611930583648
0.009374992871250537
0.009661159347970337
0.009987842066560365
0.010351289619694429
0.010571779151879014
0.00017569363824408637
0.00022236789004934448
0.0003194355992057371
0.00044488226141306325
0.0005975564869465323
0.0007775723677600408
0.0009848719164117794
0.001219069319462573
0.001479380167519927
0.0017645582118727156
0.0020728430035203897
0.002401927688754769
0.002748955769886137
0.0031105534883984183
0.0034829011668267816
0.0038618425414928895
0.004243026459476291
0.004622070934398184
0.0049947363431984875
0.005357093460229816
0.005705673161279908
0.006037588203969496
0.006350622067024543
0.006643284751008695
0.006914839150627333
0.0071653039360917645
0.007395439741033308
0.007606725182986948
0.007801328890261827
0.00798208287535884
0.008152462245614429
0.00831657538417006
0.008479167982186576
0.008645642937960657
0.008822096515795413
0.009015369021241221
0.009233103512277421
0.009483762318469018
0.009775947606528102
0.010107700718614191
0.010311592980904158
0.0001418063912370775
0.00018769825625138158
0.0002846402804332856
0.00041196969757041266
0.0005685163907434129
0.0007543371508458371
0.0009693577580979931
0.001213198634913175
0.0014850746678256618
0.0017837006181174269
0.002107209227027215
0.002453094937173865
0.002818195462646265
0.0031987201980459095
0.0035903297811731337
0.003988265247075468
0.004387519046555894
0.004783034707430892
0.005169918174859196
0.005543642584920746
0.0059002298833319726
0.0062363966590351936
0.00654965717916336
0.006838382443183165
0.007101819242053554
0.007340076817761412
0.007554090764205051
0.007745574331330583
0.007916966754692837
0.00807138720580911
0.00821260133763159
0.00834500609427434
0.00847363657196956
0.008604197219430149
0.008743117719413026
0.008897631564900274
0.00907586994161915
0.009286923420219681
0.009540263110108128
0.009835874444787984
0.010020632738499001
0.00010826686697160937
0.00015290989230990837
0.0002490085994432556
0.00037765203597062104
0.0005376651429672126
0.0007290680259572935
0.0009518166222157082
0.001205600353034258
0.0014897000414220846
0.0018028484324559607
0.00214310548246181
0.002507767112436873
0.0028933243133315695
0.003295485182210363
0.0037092659283529377
0.004129148792671942
0.00454929629901295
0.004963803582600129
0.005366965477528827
0.005753533479519444
0.0061189399866354004
0.006459472841980451
0.006772390884164729
0.007055979375767004
0.007309551330290378
0.007533406087442978
0.007728759211294381
0.00789765871759465
0.008042901354386104
0.008167960889400881
0.008276937539395351
0.008374535381252633
0.008466071951894303
0.008557522441022522
0.008655598979389842
0.008767863407697408
0.008902866340886358
0.009070264087301178
0.009280361339007353
0.009535213756761031
0.009698150320396726
7.646490942869704e-05
0.00011918771120584745
0.00021335975232190656
0.00034236868235944343
0.0005050596062052595
0.0007014491240275102
0.000931590590012868
0.001195333734878137
0.0014921239045373094
0.0018207973130726534
0.002179395203147597
0.0025650225229144384
0.0029737743158955087
0.003400747843154055
0.0038401495626296436
0.004285494813784414
0.00472988532592236
0.005166338665684328
0.005588136007896976
0.005989152566716768
0.006364138766048285
0.0067089288492785245
0.007020565367685744
0.007297339914111701
0.007538760910355688
0.007745466287390416
0.007919102390221488
0.008062190506862184
0.008178000079982643
0.008270443981769578
0.00834400698072946
0.008403714682588744
0.008455147028851334
0.008504498107784638
0.008558682660079364
0.008625488956882005
0.008713773813363246
0.008833657655307135
0.008996202258815766
0.009205635983203
0.009343978654331089
4.801333615542107e-05
8.789487553781961e-05
0.00017860956424473965
0.0003065679424253559
0.0004706736721559074
0.0006709814694335927
0.000907735926090723
0.0011810812865016196
0.0014907702621511688
0.0018358675659506426
0.00221447891242964
0.002623538376587576
0.003058686804597331
0.003514267814502037
0.003983456508600558
0.004458519305316278
0.004931184260264458
0.00539308371525506
0.005836219323729691
0.006253396429411124
0.006638581314138965
0.0069871491816741295
0.0072960093099597055
0.007563612330760548
0.007789859519243575
0.007975943153320017
0.008124150237194106
0.008237660135612853
0.008320361365328191
0.008376706468149213
0.008411616996298056
0.00843044529541566
0.008438995470174467
0.00844360348864614
0.008451275474831897
0.008469883685737171
0.00850842269905215
0.008577301721600228
0.00868824679151075
0.00884771750531077
0.008958697120728096
2.4662180659006213e-05
6.049523835776e-05
0.00014571414578840115
0.0002706819182647829
0.00043438077817454796
0.0006369513278797227
0.0008789783689049558
0.0011610914194636918
0.0014835505344334076
0.001845828278335074
0.002246221031008363
0.002681534507340077
0.003146889694341496
0.003635690954788436
0.004139782549343623
0.004649794770198432
0.005155651134836513
0.005647179102214931
0.006114747526762147
0.006549849613722903
0.006945561833913456
0.007296834435632183
0.007600599667924823
0.007855713112807888
0.00806276484731821
0.008223808293735126
0.008342055565710762
0.008421582065110076
0.008467072631922184
0.008483630420764495
0.008476659632983477
0.008451825712576463
0.008415091691959045
0.00837282709695872
0.008331985296135614
0.008300347055497093
0.008286828905745069
0.008301862824512342
0.008357557153085974
0.008462848762882318
0.008543847394674453
8.109489553393698e-06
3.842271720407538e-05
0.00011563580081331928
0.00023512426770799932
0.000395928238581367
0.0005984097727039431
0.0008436978362762123
0.0011331581407926867
0.001467830957047626
0.001847851681833904
0.0022719004133269476
0.0027367381405824214
0.0032369001979962423
0.003764613327848664
0.004309984195546982
0.004861468866174452
0.005406583943585163
0.00593277066724815
0.006428290439748255
0.006883022719328971
0.007289059560434333
0.007641034937802389
0.007936180398772669
0.008174144124202616
0.008356641304140945
0.008487013985428659
0.008569773984352748
0.008610186618542086
0.008613933926335412
0.008586877646545412
0.008534928009942886
0.008464014964757726
0.008380154069490836
0.008289597710549164
0.008199064267806526
0.008116038876501981
0.008049144558448343
0.008008549847676377
0.00800631226473552
0.008053299119593753
0.00810182244416613
0.0
2.2977412790056857e-05
8.928648898722373e-05
0.0002001990072188727
0.0003549585224810208
0.0005542874060519789
0.0008000933466005188
0.0010948027547177516
0.0014406055090523987
0.0018386661046376834
0.002288346378208987
0.002786521471578956
0.0033270928782919576
0.003900809932515319
0.004495487391718422
0.005096650211876638
0.005688552571315907
0.00625543238485736
0.006782800818337138
0.00725855651507981
0.007673757866027081
0.00802297057371332
0.008304199493625724
0.008518488411650997
0.008669310382956813
0.008761877108681114
0.00880247432254238
0.008797897736247293
0.00875502960267849
0.008680568099174335
0.008580902952487514
0.00846212096815993
0.008330122811536148
0.008190834793347394
0.008050504691158257
0.007916076710033951
0.007795641073368774
0.007698966807518995
0.0076377885099434455
0.007624531354853711
0.007638065262796774
0.00032047114675308073
0.0005157815699299336
0.0010612662674980527
0.0023153432397031697
0.002851305475465654
0.0040635629424196065
0.004713450202765166
0.0060110603696011565
0.006619405038224656
0.00766896266660685
0.008086588744083623
0.008424745376939012
0.008682996246165102
0.008864567066975805
0.008975375082269234
0.00902302467080058
0.008260814819856315
0.008076730271197452
0.007392467603642975
0.007277039337007136
0.0071877744650600565
1.439149627852487e-07
1.534672453196182e-05
7.068356601441843e-05
0.0001725323906410125
0.0007614430007905789
0.0014189192810052855
0.0018368742969770745
0.0034377861117867938
0.005369217104304165
0.00717671170473893
0.00901591186416169
0.008962520701231609
0.008870941825783426
0.008748605866572709
0.008602203655851341
0.00843775797443823
0.007891039923169633
0.007709908898018099
0.007540673464977821
0.007207676447824783
3.828405624520056e-06
1.3553025166288335e-05
5.823615685426551e-05
0.0001506160251862346
0.00029012304902434495
0.00047836080906878077
0.0007190277485868896
0.001016976571455393
0.0013770876849285853
0.0018030452612118112
0.0022960499228472223
0.0028535944900347824
0.0034684992478494587
0.004128448454933633
0.0048162467360425435
0.0055109009713376995
0.0061894441434810704
0.006829207082890499
0.007410100571020777
0.007916458060595703
0.008338121394440526
0.008670664380519612
0.008914859993996493
0.009075632757197787
0.009160780837709145
0.009179715059944481
0.009142385666107485
0.009058481994654703
0.008936922117591516
0.008785604566555177
0.008611373781774697
0.008420148377256851
0.008217169057067993
0.008007336719633069
0.007795626229090048
0.007587573780772235
0.007389853351030883
0.007210942486527103
0.0070619251920494746
0.006956527769230705
0.006915926467013176
1.018219795615417e-05
1.3947856152909207e-05
4.895823641029761e-05
0.00013247074419394026
0.00026396287120186056
0.00044534333565877975
0.0006810988255602175
0.000977202155022478
0.0013398548152414411
0.0017740775225918912
0.0022821843640901396
0.002862271228726592
0.003506962226841346
0.004202733976475988
0.004930127899565233
0.005665024047160994
0.0063808934020275045
0.007051647173850648
0.00765449036618183
0.008172171125564363
0.008594210261419046
0.008917003968130293
0.009142981295756195
0.009279169467108153
0.00933555080260674
0.009323522491076914
0.00925465179094873
0.009139803782785002
0.00898863333274356
0.008809384993812638
0.008608927484545082
0.008392954147101058
0.008166296229016634
0.007933315135967022
0.007698358002194247