# vtk DataFile Version 2.0
time_10.vtk
ASCII
DATASET UNSTRUCTURED_GRID
POINTS   4141  float 
9.973525856471519e-06         -5.078274268219757e-17        0.0                           
0.24999999999999997           9.427775495869465e-06         0.0                           
0.5000091253093968            9.518517845473941e-18         0.0                           
0.75                          8.451551280090163e-06         0.0                           
1.000008077053543             -6.450120759833782e-18        0.0                           
1.2499999999999998            7.246736253840718e-06         0.0                           
1.5000067893147562            -1.0083790880682602e-17       0.0                           
1.75                          5.788084194389947e-06         0.0                           
2.000005244380004             1.2009071074820948e-17        0.0                           
2.25                          4.0731128507117786e-06        0.0                           
2.500003447289742             1.8142627110525298e-16        0.0                           
2.7499999999999996            2.1219944665428344e-06        0.0                           
3.0000014269340953            -5.995633943602628e-17        0.0                           
3.25                          5.568618101484729e-17         0.0                           
3.4999992020375665            -1.7684456198685295e-17       0.0                           
3.75                          -2.4096671075582872e-06       0.0                           
3.999996767509268             4.3737984803223074e-16        0.0                           
4.25                          -4.914495784141254e-06        0.0                           
4.499994227470244             1.8305723637981192e-17        0.0                           
4.749999999999999             -7.5198540310411146e-06       0.0                           
4.9999915915279285            1.4925829365549858e-17        0.0                           
5.25                          -1.0215556875654222e-05       0.0                           
5.4999888652682               -9.71362245265927e-18         0.0                           
5.749999999999999             -1.300806897242843e-05        0.0                           
5.999986035494031             -2.646874277503734e-17        0.0                           
6.25                          -1.5924482553932894e-05       0.0                           
6.499983068266547             3.1788366804565955e-15        0.0                           
6.75                          9.946496506722684e-06         0.0                           
7.00000968315235              7.608118807498497e-07         0.0                           
7.250000811110321             9.09926974103286e-06          0.0                           
7.500008774649151             9.210773246630922e-07         0.0                           
7.750000980119303             8.05139953405358e-06          0.0                           
8.000007650052506             1.1044790803494366e-06        0.0                           
8.250001168994983             6.763181005719439e-06         0.0                           
8.500006276619594             1.3006410067487627e-06        0.0                           
8.750001366959765             5.216786032328943e-06         0.0                           
9.00000464415324              1.49866590378145e-06          0.0                           
9.250001563344453             3.4169713439849096e-06        0.0                           
9.500002764527368             1.6887382362017838e-06        0.0                           
9.75000174884079              1.3882819998231286e-06        0.0                           
10.00000066550052             1.8625344874547593e-06        0.0                           
1.9251870209726426e-06        0.29999914932312866           0.0                           
0.24999835888927863           0.3000020359203479            0.0                           
0.5000020846168198            0.29999672903209873           0.0                           
0.7499958939066009            0.3000021781961353            0.0                           
1.000002223270801             0.2999941883364782            0.0                           
1.2499933193637291            0.3000023109517475            0.0                           
1.5000023541119516            0.2999915513814058            0.0                           
1.7499906526646107            0.30000244072602217           0.0                           
2.0000024849138502            0.29998882467810506           0.0                           
2.249987894187907             0.30000257698141497           0.0                           
2.500002625642274             0.29998599517258684           0.0                           
2.7499850238540082            0.3000027301055237            0.0                           
3.0000027866034116            0.299983028823307             0.0                           
3.249982000979372             0.30000290961905174           0.0                           
3.500001425776353             0.30000960314224356           0.0                           
3.7500093224585               0.30000162035084754           0.0                           
4.0000017276161195            0.3000086971503045            0.0                           
4.250008348757302             0.3000019591685964            0.0                           
4.500002082024075             0.3000075729187473            0.0                           
4.750007143264489             0.30000233793421205           0.0                           
5.0000024693346425            0.30000619712829435           0.0                           
5.250005680168775             0.3000027349172173            0.0                           
5.500002867527685             0.3000045593325498            0.0                           
5.75000395654948              0.30000312878967583           0.0                           
6.000003256186971             0.30000267043965045           0.0                           
6.250001989050702             0.30000350213005433           0.0                           
6.500003620402613             0.30000055309294793           0.0                           
6.749999802564418             0.3000038526540973            0.0                           
7.000003964062544             0.2999982434579394            0.0                           
7.2499974370343105            0.3000041689796451            0.0                           
7.50000426468771              0.29999577902445235           0.0                           
7.749994930733639             0.30000444759212275           0.0                           
8.000004535842782             0.29999320094450826           0.0                           
8.249992320803475             0.30000470879985963           0.0                           
8.5000047948189               0.29999053160025396           0.0                           
8.74998962240542              0.30000496956745115           0.0                           
9.000005059841463             0.2999877724927595            0.0                           
9.249986830021248             0.3000052501311461            0.0                           
9.500005351698041             0.2999849036447859            0.0                           
9.74998391641282              0.3000055713075634            0.0                           
10.000005690634215            0.2999818838517881            0.0                           
9.729995397333482e-06         0.6000021332295995            0.0                           
0.25000227421682475           0.6000091906963656            0.0                           
0.5000088908038088            0.6000025872930005            0.0                           
0.7500027577222603            0.6000082202075246            0.0                           
1.0000078461102277            0.6000031211573383            0.0                           
1.25000331180327              0.600007013934698             0.0                           
1.500006554189088             0.6000037047238069            0.0                           
1.7500039044883988            0.6000055454395451            0.0                           
2.0000049965137423            0.600004304590115             0.0                           
2.2500045027002327            0.6000038116723572            0.0                           
2.5000031772382836            0.6000048902161145            0.0                           
2.750005078130309             0.6000018290849825            0.0                           
3.0000011175419776            0.6000054405137177            0.0                           
3.2500056150177126            0.5999996276957645            0.0                           
3.4999988532054696            0.6000059484676158            0.0                           
3.7500061054178437            0.5999972516469415            0.0                           
3.9999964271688695            0.6000063998212168            0.0                           
4.250006539070114             0.5999947381510097            0.0                           
4.49999387619567              0.600006806321841             0.0                           
4.750006936127691             0.5999921218890618            0.0                           
4.99999123055023              0.600007193046014             0.0                           
5.250007322331903             0.5999894200216722            0.0                           
5.499988500208439             0.6000075883540525            0.0                           
5.7500077274871435            0.5999866277949535            0.0                           
5.999985672869148             0.6000080239563264            0.0                           
6.25000818357234              0.599983717726051             0.0                           
[...]
POINT_DATA  4141
SCALARS Con float 1
LOOKUP_TABLE default
1.6274630757551022e-05
1.743696030673309e-05
1.973623417446267e-05
2.2417179181453236e-05
2.5439124412993493e-05
2.8809444912760647e-05
3.2533642068807866e-05
3.661134748858943e-05
4.1035729594506395e-05
4.579338167380001e-05
5.086447444564451e-05
5.6223145664602715e-05
6.183808969668041e-05
6.767327680311465e-05
7.368868905398613e-05
7.9840871676239e-05
8.608320897064311e-05
9.236555255381202e-05
9.864608599730719e-05
0.00010498002426571536
0.00011205982580208693
0.00011915078146660606
0.00012553648980310247
0.00013160617901104754
0.00013766568800437852
0.00014369715210844265
0.0001497095067450459
0.0001557193409439518
0.0001617544944275153
0.00016785200887636873
0.00017405704930837369
0.00018042198699189403
0.00018700560363547647
0.00019387237644468916
0.00020109176031145082
0.00020873744446440177
0.00021688645153180062
0.00022561674247912082
0.00023498577112600246
0.00024474038960221574
0.0002503582397832399
1.6514549673497607e-05
1.7703534056633186e-05
2.00487975991169e-05
2.2779213448129512e-05
2.5854214677189423e-05
2.9280227987375812e-05
3.3061811361809465e-05
3.7197599720322925e-05
4.1679759594975656e-05
4.649391986480375e-05
5.161937695199238e-05
5.702955611324689e-05
6.26927082483834e-05
6.857282659375114e-05
7.463078392659685e-05
8.082586120855757e-05
8.711809568076907e-05
9.347581323559668e-05
9.988787666658903e-05
0.00010650967417731152
0.00011319749394819147
0.00011976796746695335
0.00012614343201431544
0.0001324074105152533
0.00013853528977813244
0.00014459761177555263
0.00015062022758904162
0.00015663187820954785
0.00016266613731129152
0.0001687635480444505
0.00017497165003511588
0.00018134463885242184
0.00018794283259743462
0.00019483207125246604
0.0002020830623907774
0.00020977066335025634
0.0002179729860472907
0.00022676902359702636
0.00023621686900627574
0.00024606759090813724
0.00025174733672879695
1.6377680743292458e-05
1.7566357615844453e-05
1.9916888967081944e-05
2.2659462825108206e-05
2.575256396840799e-05
2.9202251466078347e-05
3.301258289515026e-05
3.718165673533844e-05
4.170109155819779e-05
4.655599880110346e-05
5.172525161165119e-05
5.718205072398714e-05
6.289481272960364e-05
6.882843746220601e-05
7.494613825654076e-05
8.121219633961798e-05
8.759706114519094e-05
9.408324757767398e-05
0.00010069226994451096
0.00010725122725532173
0.00011352330258923587
0.00011977537854659037
0.00012620540817295223
0.00013254208643716827
0.00013874965685349938
0.00014484726447767615
0.00015087542888266158
0.00015687070473659063
0.00016287257301578326
0.00016892526844523924
0.00017507887279539036
0.00018138951026876342
0.00018791916925543073
0.00019473529372423707
0.00020191026223314424
0.00020952075659242216
0.00021764692202894318
0.00022637002263447862
0.0002357509796722488
0.0002455421856191438
0.00025118980768062526
1.6140663860371346e-05
1.7331413105269462e-05
1.9691815035297348e-05
2.2454568291096397e-05
2.5577833927298726e-05
2.906692430826041e-05
3.292505815557287e-05
3.714940693306062e-05
4.1730618575631935e-05
4.665283290166428e-05
5.189400548042038e-05
5.7426547361756345e-05
6.321830569483906e-05
6.923392668304617e-05
7.543663062192102e-05
8.179041363613522e-05
8.826134996982199e-05
9.481772442675613e-05
0.00010138138889677139
0.00010785348878808254
0.00011422471046431074
0.00012052679155467233
0.00012680516553881322
0.00013307609296664673
0.0001392594270291778
0.00014534121830692224
0.00015133928331385627
0.00015728657466498432
0.00016322284931066488
0.00016919407046327959
0.00017525232452309227
0.00018145581817765523
0.00018786870568469693
0.00019456076322099268
0.0002016069501235345
0.00020908685398101615
0.00021708392597739277
0.000225683210355758
0.00023494989495625464
0.0002446434079172317
0.0002502434261353574
1.5805525535966533e-05
1.6999318547065513e-05
1.9374270889196258e-05
2.2166068390211538e-05
2.5332292948954067e-05
2.887723014903315e-05
3.28028759347354e-05
3.7105047206065044e-05
4.1772936788494934e-05
4.67891576310238e-05
5.2130081395851285e-05
5.776647773359491e-05
6.366443727649291e-05
6.978653249065969e-05
7.609305913856578e-05
8.25427689572171e-05
8.909228580347336e-05
9.568757106324072e-05
0.00010226751563740136
0.00010878110130657229
0.00011519944256908878
0.00012153315675239281
0.00012780048692126778
0.00013399564906463958
0.00014010854862760673
0.00014612354260316393
0.00015204832348339085
0.0001579078464616067
0.00016373900229856543
0.0001695873974925011
0.00017550615807190707
0.00018155530791022902
0.00018780136050547833
0.00019431692678713156
0.0002011802921590393
0.00020847491808533112
0.00021628874329822145
0.0002247119905591784
0.00023381599440464623
0.00024336980456784457
0.00024890091664927247
1.5369218249132503e-05
1.6567493474294396e-05
1.8962201136012968e-05
2.1792475457707735e-05
2.5015063931067773e-05
2.8632872399588262e-05
3.2646278037977806e-05
3.7049293938898155e-05
4.182914599524829e-05
4.696632085685417e-05
5.2434887164459456e-05
5.8203078051602126e-05
6.423409501672442e-05
7.048703469809191e-05
7.691771563367874e-05
8.34790819841412e-05
9.012029292526424e-05
9.678767464060078e-05
0.00010342847624255983
0.00010999833293399239
0.0001164711936020904
0.0001228371024753932
0.0001290948400571397
0.0001352438871967991
0.00014127887111435396
0.00014719977927896017
0.0001530153721677367
0.0001587481707849925
0.0001644329421292803
0.00017011473958069117
0.00017584743178707533
0.0001816927863032124
0.0001877198629601458
0.00019400453272006964
0.00020062905769807662
0.0002076816372667652
0.0002152557883819319
0.00022344826254930625
0.00023233820192604062
0.00024170722105872376
0.0002471468168105892
1.4828636474851596e-05
1.603311845343182e-05
1.845341725782006e-05
2.133229359911848e-05
2.462535560312399e-05
2.833376070629911e-05
3.245586280911059e-05
3.69834252256868e-05
4.190120562479018e-05
4.7186985277112114e-05
5.2811855603663514e-05
5.874073646497259e-05
6.493309229038143e-05
7.134376485736357e-05
7.792380004720833e-05
8.462114176609134e-05
9.138170476561716e-05
9.815128326509942e-05
0.00010487914493251072
0.00011152291258779555
0.00011805171499368267
0.00012444683545271193
0.00013069847147394008
0.00013680170200386976
0.00014275587368150908
0.00014856540101415927
0.00015424354829176405
0.00015981405761511348
0.00016531191321009225
0.00017078262566669615
0.00017628127913244028
0.0001818717017576206
0.000187625841377441
0.00019362328613319873
0.00019995087936325705
0.00020670234169774192
0.00021397777031403295
0.00022188169732199878
0.00023050270538177528
0.00023963800851878935
0.0002449611427629072
1.4180975842148823e-05
1.5393686205874366e-05
1.7846018657979412e-05
2.078431624006114e-05
2.4162688780527453e-05
2.7980158884486046e-05
3.2232664535368376e-05
3.6909304149859786e-05
4.199190710744187e-05
4.745503300555779e-05
5.326620770389325e-05
5.938640037795046e-05
6.577071400208634e-05
7.236926380672513e-05
7.912820778441369e-05
8.59910186518785e-05
9.290014541594827e-05
9.979935647979685e-05
0.00010663673254984338
0.00011336770547249813
0.00011995735984367187
0.00012638095097254368
0.0001326229854336603
0.00013867588393480553
0.000144539143168634
0.00015022002477183664
0.00015573461395987338
0.00016110909182390318
0.00016638017675189815
0.00017159503196614794
0.00017681075383936355
0.00018209379922255023
0.00018751948301293903
0.00019317159911980226
0.00019914213839477703
0.00020553104791296665
0.00021244589175533355
0.00022000012804473167
0.0002282933189800329
0.00023714142133456238
0.00024232041401153946
1.3424386186506174e-05
1.4647557189295017e-05
1.7138843295424276e-05
2.0147954786370174e-05
2.362709079673151e-05
2.7572752306776916e-05
3.1978100993201294e-05
3.682920844355428e-05
4.2104589218418e-05
4.7775137920076824e-05
5.380431188028348e-05
6.014857171026454e-05
6.675809522499719e-05
7.357776345088586e-05
8.054844284450616e-05
8.760859373970504e-05
9.469627647350434e-05
0.00010175154493004905
0.00010871906934083138
0.0001155506235091628
0.00012220692183510543
0.00012865853718564615
0.0001348859332472533
0.00014087907405053432
0.00014663717652539006
0.00015216880574301948
0.0001574923615557432
0.00016263652380445458
0.00016764051592868293
0.00017255403417405633
0.00017743696001069046
0.00018235899108231564
0.0001873993216445739
0.00019264641682078545
0.00019819790788158398
0.00020416054908158093
0.00021065011415206654
0.00021778997093387187
0.00022569207143705654
0.00023419434727890733
0.00023919835714402508
1.2558743359131368e-05
1.3794653582584465e-05
1.6331994738514036e-05
1.942358632504487e-05
2.301926553535463e-05
2.711264179212935e-05
3.169379560265186e-05
3.674549865609241e-05
4.224265456966597e-05
4.8152137060169294e-05
5.4432889536759976e-05
6.10363236103914e-05
6.790706354518504e-05
7.498405497963329e-05
8.220206129529447e-05
8.94935384779453e-05
9.679086285389024e-05
0.00010402881433985967
0.00011114711861430375
0.00011809277227022418
0.00012482187280704076
0.00013130077914509582
0.00013750663242385685
0.00014342746304962524
0.00014906212054155335
0.00015442025217483443
0.0001595223441469044
0.0001643997556757891
0.00016909468792594473
0.0001736600097756069
0.00017815901668153089
0.00018266519235923625
0.00018726204585710405
0.00019204308649714284
0.00019711194065098433
0.00020258257670109015
0.00020857951562418514
0.00021523680399986085
0.00022267999279384747
0.00023077226127157815
0.00023556694985148134
1.1586584770030696e-05
1.2837272130655559e-05
1.542743849347374e-05
1.8612914533721207e-05
2.2340714562951327e-05
2.6601228124364374e-05
3.1381251559645514e-05
3.6660104594045425e-05
4.240890605649577e-05
4.8590249506138813e-05
5.515816208280895e-05
6.205843507580728e-05
6.922938084008956e-05
7.660306428766864e-05
8.410700487892939e-05
9.166631818258676e-05
9.9206201895434e-05
0.00010665461934622718
0.00011394497205673436
0.00012101851982979546
0.00012782635087807743
0.00013433074915263627
0.00014050599514674075
0.00014633866979926337
0.00015182765239135388
0.00015698394360464884
0.00016183041234499594
0.00016640149462436221
0.00017074287718196854
0.00017491116397661094
0.00017897359591191074
0.0001830078707185289
0.00018710212481408176
0.00019135511902202576
0.00019587662422339261
0.0002007879888503467
0.00020622274471565052
0.00021232608729153255
0.0002192381005769523
0.0002268504599322779
0.00023139778650986212
1.0514196043173645e-05
1.1781020454998368e-05
1.4429647756087672e-05
1.7719310966727992e-05
2.1593771127340372e-05
2.6039962112005014e-05
3.104134062038137e-05
3.657379916374943e-05
4.260466732254075e-05
4.9092115121763234e-05
5.598489574148923e-05
6.322254654058094e-05
7.07361376877091e-05
7.844962874703803e-05
8.628181285285319e-05
9.414879067179822e-05
0.00010196682278931843
0.0001096553717084665
0.00011714008340287699
0.00012435548545839864
0.00013124717757271483
0.00013777341399628918
0.0001439060276893771
0.00014963079456234475
0.00015494734012826527
0.00015986874521046297
0.00016442097852035242
0.0001686422619808286
0.00017258244501006006
0.00017630247454537945
0.0001798740170580448
0.00018337930344925786
0.0001869112440208291
0.0001905738372853541
0.00019448288458047752
0.0001987669625843058
0.0002035685216401066
0.00020904400706297157
0.00021534859555509745
0.00022240558815327436
0.00022666378252828115
9.35283841981124e-06
1.063584689928613e-05
1.334627161061389e-05
1.6748099539825773e-05
2.0781511506146497e-05
2.542989747195538e-05
3.067354972231829e-05
3.648520986897923e-05
4.282863991702127e-05
4.9657603654207034e-05
5.6915273125637686e-05
6.45342158220428e-05
7.243710642651137e-05
8.053822631745682e-05
8.874573622123456e-05
9.696460638365168e-05
0.00010510001149992988
0.00011306092269909018
0.00012076360588539899
0.00012813474504566266
0.0001351139446225113
0.0001416555015382911
0.00014772937563938912
0.00015332145480810306
0.00015843322526754985
0.00016308103207095622
0.00016729510709089036
0.00017111851249799424
0.00017460618077061866
0.00017782410920174404
0.00018084886492862894
0.00018376742216768324
0.0001866774117809086
0.0001896877936749526
0.00019291994510850296
0.0001965091243233332
0.0002006061792114697
0.00020537843363826097
0.00021099624873710033
0.00021741745228478595
0.00022134120925703567
8.120048090424812e-06
9.417101890085477e-06
1.2188754453008631e-05
1.5706720411375565e-05
1.9907468418353443e-05
2.4771003096360303e-05
3.0274942195629427e-05
3.6389507175362566e-05
4.307543121495129e-05
5.0282316453890474e-05
5.79475179678447e-05
6.599580717387377e-05
7.434000485175005e-05
8.288267872062445e-05
9.1518866643717e-05
0.00010013967773024905
0.00010863647049911144
0.00011690526884652491
0.0001248510130472394
0.00013239127701036307
0.00013945918437443923
0.0001460053307387746
0.00015199870614095615
0.0001574266783685296
0.00016229424090616912
0.00016662273819518454
0.00017044832348918023
0.00017382038429100254
0.0001768001144197108
0.00017945941747483249
0.00018188022553322018
0.00018415434366446457
0.00018638384195621783
0.00018868203210106786
0.00019117500001924301
0.00019400367106890852
0.0001973262391860737
0.0002013199865302529
0.00020616998343290293
0.00021187112619185192
0.00021541210279200202
6.8409029589650856e-06
8.14652377329419e-06
1.0972820082151104e-05
1.4604694086914138e-05
1.8975109982737314e-05
2.4061176784894976e-05
2.9838771861724155e-05
3.6276716486986375e-05
4.333370492600461e-05
5.09557409747279e-05
5.90742364026794e-05
6.760519010694759e-05
7.644969435014285e-05
8.549590594007068e-05
9.46224418044652e-05
0.00010370293220046091
0.00011261136453387213
0.00012122768423666369
0.0001294431122286538
0.0001371646893647287
0.00014431867142639977
0.00015085257737996072
0.00015673587722318208
0.00016195947631957632
0.0001665342450818482
0.000170488969124497
0.00017386799985110186
0.00017672898697058178
0.00017914088700192622
0.00018118248476935658
0.00018294152853091814
0.0001845145739819523
0.00018600756176827247
0.0001875371493505968
0.00018923278088870126
0.0001912394461065201
0.00019372102040497325
0.00019686317441112812
0.00020086459757597105
0.00020575928715362463
0.00020886694824359686
5.54902492749969e-06
6.85296658890628e-06
9.718675488539268e-06
1.3453332967820392e-05
1.7987059619845443e-05
2.32949957966931e-05
2.935279404525944e-05
3.612966849926383e-05
4.3583942490166714e-05
5.165904441927903e-05
6.0280482997999423e-05
6.935430066989206e-05
7.876739681987661e-05
8.838990845059597e-05
9.807955484397175e-05
0.00010768762711224592
0.00011706600843435621
0.00012607449439796804
0.0001345876250681482
0.0001425003242956167
0.0001497318654214131
0.00015622792683325036
0.00016196078711241653
0.0001669279286377847
0.00017114949194474375
0.00017466503574740198
0.00017753012866818317
0.00017981315600545085
0.00018159263024206457
0.0001829552981007596
0.0001839950819878006
0.00018481296917048968
0.0001855178478636165
0.00018622825631639292
0.00018707506953936679
0.0001882050658023932
0.00018978533607868798
0.0001920076865092681
0.00019508258734535105
0.00019908472575278115
0.00020170765234473205
4.287000217745064e-06
5.5725734475631386e-06
8.450792996187238e-06
1.2265119258187061e-05
1.694412082022214e-05
2.2462255220847226e-05
2.8797237484092303e-05
3.592158234991073e-05
4.379584199659968e-05
5.236256091719379e-05
6.154161846124291e-05
7.122765398080326e-05
8.12901077672242e-05
9.157617258116512e-05
0.00010191655488991062
0.00011213354667324216
0.00012205053099560268
0.0001315018039239403
0.0001403415298297086
0.0001484508570908693
0.00015574249080469403
0.00016216252895465084
0.00016768971178471006
0.00017233258603951092
0.00017612529050772764
0.0001791226741333288
0.00018139539495272357
0.00018302559473968964
0.00018410340035212187
0.00018472458826657073
0.00018498940163216856
0.00018500259007047442
0.0001848745950311779
0.00018472385405542347
0.00018468015622995717
0.00018488906619582005
0.00018551747109294352
0.00018675977004658804
0.00018883619034151128
0.0001918628526314356
0.0001939503461607475
3.1059343402907947e-06
4.348085432110552e-06
7.1969908661359255e-06
1.1053118815388342e-05
1.58444051485486e-05
2.1546290546528358e-05
2.81425720339776e-05
3.5613450613605795e-05
4.392556040392274e-05
5.3023152033968e-05
6.282114344499936e-05
7.320102223666221e-05
8.401042311497144e-05
9.506685746926729e-05
0.00010616553328521102
0.00011709051997058852
0.00012762795090013674
0.00013757950231808842
0.00014677439696835398
0.0001550784351881126
0.00016239916723953117
0.00016868702571531025
0.00017393286679734203
0.000178162826528318
0.00018143160419845436
0.00018381525427048145
0.0001854043849703257
0.0001862984091219943
0.00018660123269524407
0.0001864185244675543
0.00018585658116161759
0.00018502268779214666
0.00018402685873753695
0.00018298482583241165
0.00018202220775941983
0.00018127981189936941
0.00018092010848683182
0.00018113501787286968
0.0001821490741616656
0.00018412432830979667
0.00018562919817139784
2.062272500427382e-06
3.2265035656558297e-06
5.9882798729902185e-06
9.830915460012566e-06
1.4681731238275722e-05
2.0521962755874174e-05
2.7347346329609577e-05
3.5151713906428036e-05
4.3913252904375574e-05
5.3581843193093995e-05
6.406882569333353e-05
7.524055887825531e-05
8.691713782021236e-05
9.88771413105157e-05
0.00011086840564333394
0.00012262384932661756
0.00013388021115326202
0.00014439701948799983
0.0001539729510445
0.00016245737429978886
0.0001697558699842973
0.00017582977252373426
0.00018069070576049484
0.0001843917793527585
0.00018701717538080278
0.0001886717634765734
0.00018947189762510077
0.0001895381127167197
0.00018899004659325008
0.0001879435915680219
0.00018651008154024
0.00018479729980192463
0.00018291202576762694
0.00018096394776062066
0.0001790708141193205
0.00017736474420504338
0.00017599975189619763
0.00017515984946183224
0.000175065986264271
0.00017591576717935228
0.00017679316509000708
1.222249327794801e-06
2.2603253585795074e-06
4.858497117014378e-06
8.609755641670175e-06
1.344470244497916e-05
1.9356721806527037e-05
2.63600346658713e-05
3.447019477987644e-05
4.36847349494969e-05
5.396524959055353e-05
6.522227088783611e-05
7.73051367329645e-05
8.999903062957242e-05
0.00010303089158973975
0.00011608446842356663
0.00012882315470290432
0.00014091724217137606
0.00015207123266676862
0.00016204655274061928
0.00017067628101968314
0.00017787036467607772
0.0001836118526189584
0.0001879462670778586
0.00019096701775333242
0.00019279965761004553
0.00019358729586672666
0.0001934785470968213
0.00019261876505219472
0.00019114453929313865
0.00018918122827636094
0.00018684299327210202
0.00018423488728600357
0.00018145657707725103
0.0001786074391878385
0.0001757928532974618
0.0001731317660513177
0.00017076545855834862
0.00016886783634401643
0.00016765068631357323
0.0001673415244026591
0.0001675485220456502
1.2431636411057435e-05
1.8389744392087358e-05
3.3984219760367834e-05
6.677599530910018e-05
7.989283354570349e-05
0.00010797118330665657
0.00012219152613282064
0.00014891373483196833
0.00016065029494089682
0.00017952669025094484
0.00018642386204081328
0.00019162643741506632
0.00019523119831043432
0.00019738640708211804
0.00019826957645630258
0.00019806835264629652
0.0001796113761748595
0.00017594776051538518
0.00016264932800384778
0.00016040369596173815
0.00015858400591426457
6.685524106910137e-07
1.5956635786207827e-06
4.015468270575052e-06
7.643463389302219e-06
2.5558935067080743e-05
4.3688957862258734e-05
5.4649964737621846e-05
9.373845426435121e-05
0.0001359754442975872
0.00017091218501858217
0.0001969660669148497
0.00019513222948155582
0.00019271758287938058
0.00018985280254859871
0.00018665014173834758
0.00018320704705893478
0.00017230511146437116
0.00016878529288420237
0.00016551337672827997
0.00015901804341741786
4.1216196621046703e-07
1.1997158980691007e-06
3.4006736513473696e-06
6.847534195968292e-06
1.1492516977024826e-05
1.735942571065173e-05
2.450944241949194e-05
3.30125204837836e-05
4.291654494111318e-05
5.421745456650707e-05
6.683221749227155e-05
8.057896403327693e-05
9.516903814634216e-05
0.00011021521002644731
0.00012525763400030355
0.00013980506094914255
0.00015338437351074274
0.00016558869275681728
0.00017611453494255873
0.00018478141298011846
0.0001915325568483672
0.00019641962767265024