# vtk DataFile Version 2.0
time_10.vtk
ASCII
DATASET UNSTRUCTURED_GRID
POINTS   4141  float 
9.565834142870162e-05         -6.339862182106212e-18        0.0                           
0.24999999999999892           9.093104604749678e-05         0.0                           
0.5000882406678634            -1.1332176204027648e-16       0.0                           
0.75                          8.211347721745002e-05         0.0                           
1.00007864582713              4.430186144207721e-17         0.0                           
1.25                          7.084403079656234e-05         0.0                           
1.5000664945696947            3.5354821373721985e-17        0.0                           
1.75                          5.688091374927312e-05         0.0                           
2.0000516178850445            -5.745144831425507e-18        0.0                           
2.25                          4.0202373598206034e-05        0.0                           
2.5000340671358536            5.984972343201505e-17         0.0                           
2.75                          2.1009799118665034e-05        0.0                           
3.000014134265938             -1.887592715148756e-17        0.0                           
3.250000000000002             -1.3964135501115436e-16       0.0                           
3.499991960522801             -7.058331660664118e-17        0.0                           
3.75                          -2.4287974604706434e-05       0.0                           
3.999967392749442             -2.03650321981217e-17         0.0                           
4.25                          -4.9678766252796275e-05       0.0                           
4.499941577194601             1.5352844014644314e-16        0.0                           
4.749999999999999             -7.63049664543051e-05         0.0                           
4.999914561867792             -9.589648201128798e-17        0.0                           
5.25                          -0.00010409161413859019       0.0                           
5.499886379881817             -9.478517928926405e-17        0.0                           
5.75                          -0.00013311957622105268       0.0                           
5.99985688657939              -2.267077060373899e-17        0.0                           
6.250000000000001             -0.0001636636672562983        0.0                           
6.49982574406469              -1.9099236495213695e-15       0.0                           
6.75                          9.535142894836603e-05         0.0                           
7.000093093506788             6.586831068664383e-06         0.0                           
7.250007149030027             8.7943331957124e-05           0.0                           
7.500085011698029             8.363714993810873e-06         0.0                           
7.750009010086937             7.83520376401805e-05          0.0                           
8.00007459789334              1.0363033263074731e-05        0.0                           
8.250011061873739             6.619561688376636e-05         0.0                           
8.500061537598821             1.2484543398662094e-05        0.0                           
8.750013200619934             5.130364473713027e-05         0.0                           
9.000045733995341             1.4623926957328945e-05        0.0                           
9.250015324393367             3.372371909653169e-05         0.0                           
9.50002730369735              1.668738704309839e-05         0.0                           
9.750017343865373             1.3695262760113386e-05        0.0                           
10.000006512639548            1.859470118193796e-05         0.0                           
1.9296118122830883e-05        0.2999913583501023            0.0                           
0.24998341445284847           0.30002054350614876           0.0                           
0.5000210949233377            0.2999669619850659            0.0                           
0.7499584979284691            0.3000221664828458            0.0                           
1.0000226884252912            0.29994114049475995           0.0                           
1.249932259901204             0.30002371358614355           0.0                           
1.5000242220829865            0.2999141140620546            0.0                           
1.7499048502746495            0.3000252466684619            0.0                           
2.0000257696888957            0.2998859269905909            0.0                           
2.249876254466999             0.3000268551495073            0.0                           
2.500027424721374             0.29985643638717613           0.0                           
2.749846263147964             0.3000286343757296            0.0                           
3.0000292805066864            0.2998253029782292            0.0                           
3.2498144765193597            0.3000306686738874            0.0                           
3.5000120951108036            0.30009218323372483           0.0                           
3.7500897305360783            0.3000142801541013            0.0                           
4.000015468940683             0.30008412556853226           0.0                           
4.250080936946173             0.3000180103563017            0.0                           
4.500019349071333             0.3000737144901615            0.0                           
4.750069659425592             0.3000221242658934            0.0                           
5.000023544852274             0.30006062938746436           0.0                           
5.25005564983229              0.3000264127200585            0.0                           
5.500027845041189             0.30004476992317086           0.0                           
5.750038880000555             0.3000306723515636            0.0                           
6.00003205552161              0.3000262397181177            0.0                           
6.25001950698992              0.3000347392082684            0.0                           
6.500036038856896             0.300005242373581             0.0                           
6.74999775078779              0.30003861801304277           0.0                           
7.0000398677937765            0.2999821170951422            0.0                           
7.249973992770891             0.30004218482185024           0.0                           
7.500043277746504             0.29995721427266486           0.0                           
7.749948593229425             0.30004538911275835           0.0                           
8.000046418393426             0.2999309387259762            0.0                           
8.249921917510287             0.30004845218942994           0.0                           
8.500049469368541             0.2999034996092335            0.0                           
8.749894100448188             0.30005153887883435           0.0                           
9.000052605722612             0.29987489612899654           0.0                           
9.249865072916107             0.3000548399681915            0.0                           
9.500056021377441             0.29984492027800996           0.0                           
9.749834558127871             0.30005854476544125           0.0                           
10.000059897830594            0.29981316492636934           0.0                           
9.289347133668123e-05         0.6000180899281526            0.0                           
0.2500196810735072            0.6000882286871307            0.0                           
0.500085563083366             0.6000231636502117            0.0                           
0.750025038832478             0.6000794656758103            0.0                           
1.0000760011296768            0.6000290062894419            0.0                           
1.2500310757260356            0.6000681788200988            0.0                           
1.500063804966828             0.6000353261016571            0.0                           
1.7500374830288508            0.6000541129572106            0.0                           
2.0000487953943984            0.6000418029292752            0.0                           
2.2500439448450766            0.6000372367583169            0.0                           
2.5000310094186853            0.6000481475271086            0.0                           
2.750050194825108             0.6000177018794342            0.0                           
3.0000106412381573            0.6000541692060656            0.0                           
3.2500560992157768            0.5999957858278554            0.0                           
3.4999880291641112            0.6000598219276947            0.0                           
3.750061591240829             0.5999719176140103            0.0                           
3.9999635861803973            0.6000649437322632            0.0                           
4.250066546609994             0.5999464432652819            0.0                           
4.4999376570987275            0.6000696550515339            0.0                           
4.750071178772316             0.5999196981789516            0.0                           
4.99991053454338              0.6000742136839134            0.0                           
5.2500757458190135            0.5998918416612095            0.0                           
5.4998823053265795            0.600078894481864             0.0                           
5.750080533387821             0.5998628144644816            0.0                           
5.999852836429439             0.6000839948732829            0.0                           
6.25008583782708              0.5998323371907596            0.0                           
[...]
POINT_DATA  4141
SCALARS Con float 1
LOOKUP_TABLE default
0.0011771143027175198
0.0012905020183954263
0.0015159082511663937
0.001780554442699138
0.0020809072840037588
0.0024180424589746534
0.002792813067584617
0.0032054611041430346
0.0036555601188873956
0.004142006115630078
0.0046630352280836946
0.005216264536823428
0.005798751325105003
0.006407062852130417
0.007037344283150885
0.007685362355578154
0.0083465262524928
0.009015826199279155
0.009689511332616753
0.010374420647235748
0.011150241961413508
0.011935653828012701
0.012647716736204802
0.01332592010089867
0.014009268647306778
0.01469565781113828
0.015385957761401893
0.016081652673369435
0.016785366354721797
0.0175006328950647
0.018231775943136182
0.01898379980125842
0.019762295143869183
0.020573349288672844
0.021423456564319123
0.022319425326749916
0.023268272767616806
0.024276990533728362
0.02535046954466982
0.026461056480211097
0.02709881459956299
0.0012008285791567158
0.0013170769043309041
0.0015472436156560875
0.001817043994602393
0.0021229572192611934
0.0024659667107494224
0.002846831740741035
0.0032656944281522033
0.003722027391565353
0.00421462929192413
0.00474164821432666
0.005300630207817632
0.005888590749442184
0.006502107205910517
0.00713743339852057
0.007790658813210964
0.008457961054694822
0.009136510330320563
0.009825684447193977
0.01054555397043244
0.011279356656815667
0.012003628088365453
0.012711146898955333
0.013413765593206515
0.014106406807447134
0.014797604387941525
0.015490154092103052
0.01618700311154262
0.016891461750257915
0.01760748016630526
0.018339660486123538
0.019093219588521518
0.019873925724566196
0.020688023686611733
0.02154215227659735
0.022443254538972543
0.023398473124108823
0.024414917233903724
0.025497534486006414
0.026619045942851822
0.027263807970838508
0.0011895720958132756
0.0013056538137529504
0.0015361150753373193
0.0018068584337163982
0.002114295092580252
0.0024593878791297607
0.0028428607920857954
0.00326481595707757
0.003724684331049104
0.0042212261069893954
0.004752561405428661
0.005316231292655886
0.005909291891031044
0.0065284493051406736
0.007170257549324616
0.007831424453071188
0.008509398983919579
0.00920300784674069
0.009915759947835327
0.010626887655772011
0.011310632151178746
0.011998920920508771
0.01271363887216185
0.013424222286652182
0.014126792208049308
0.014822842396838749
0.015516795289787165
0.01621246720695139
0.016913861578697988
0.017625368755685697
0.018351897918820224
0.01909890318751133
0.01987236108892259
0.020678719666693032
0.021524830549033393
0.02241786814332516
0.023365229635359395
0.024374296028049264
0.02545030074714151
0.02656588663476285
0.027207235372482666
0.001169898037074166
0.0012859771801372768
0.0015170048172489835
0.001789281796344608
0.002099222084931749
0.0024477408016437374
0.0028355018205638008
0.003262536795341783
0.0037282007762066125
0.004231177534973987
0.004769516579186523
0.005340702704710188
0.005941761156941027
0.0065694035851342255
0.007220218802018113
0.007890910227285901
0.008578412266141623
0.00927986675402489
0.009986622881497086
0.01068800353768509
0.011383218214506446
0.012076665773620435
0.01277436576252327
0.013477965570845924
0.014178187152117886
0.014873193982919338
0.015564568114055719
0.016255630885765843
0.01695037482347899
0.017653375874280293
0.018369774623939017
0.019105274214912253
0.019866116485247456
0.020659038309066062
0.02149121125561459
0.022370166298714644
0.023303695218120955
0.024299606462419333
0.02536357418922142
0.02646889175958496
0.027105248680601136
0.0011421004375821878
0.001258173591266325
0.0014900499603655742
0.0017645352072153818
0.002078036261090971
0.002431402142159747
0.002825207472415323
0.00325937897337761
0.0037331547411911478
0.004245092473535481
0.004793108173867001
0.005374544841352445
0.005986270077366454
0.006624796336740089
0.0072864049060671785
0.007967201371057758
0.008663005318782665
0.009368275525456953
0.010076626923141313
0.010782678787064053
0.011483727636484167
0.01218146235616604
0.01287828839614759
0.013573795078222829
0.01426670164305371
0.014954929583649646
0.015638937079335134
0.016321042210645557
0.017004850481072427
0.017694862620057872
0.018396326155950448
0.01911515673886901
0.019857883146428078
0.02063159228499025
0.02144386648309874
0.02230270850216511
0.023216442520588434
0.024193469664413894
0.025240136474508887
0.02633082313214815
0.026960177439176888
0.0011059477517983347
0.00122205365930754
0.001455094706956992
0.0017325017261489739
0.0020506636663059456
0.0024103382174418997
0.0028119801815976986
0.0032553745996656337
0.003739598437187801
0.0042630288565426245
0.004823379064322798
0.005417759442455568
0.00604275907233689
0.006694535664895983
0.0073688863226123716
0.008061261354139261
0.008766617789844547
0.00947952087619816
0.010194554070915636
0.010907234182506692
0.01161505804288857
0.012317261327483016
0.013013955441266266
0.013705171953340804
0.014390242871341198
0.01506889119138493
0.01574167621929898
0.016410607901272814
0.017078996610946553
0.01775124167268991
0.018432656634563765
0.019129357630919164
0.01984818242517733
0.020596621838364568
0.021382751620107658
0.02221515680976394
0.023102835318229938
0.024054961267512144
0.025078800508625498
0.026150111899025774
0.02677004350564884
0.0010612260026962338
0.0011774193472497742
0.0014119828696685455
0.0016930712874872434
0.0020170414043689322
0.0023845329872093455
0.002795849781658658
0.003250599026603002
0.003747653758475344
0.004285158728739252
0.004860560894833429
0.005470661725286839
0.0061116862547487055
0.006779358727810116
0.0074689717818812
0.008175434779548487
0.008893372182074056
0.009617322418289024
0.010342149379124047
0.011063570176612273
0.01177850038481059
0.012485095789185873
0.013182385829382196
0.013869823314229146
0.014547193507567564
0.01521470075252973
0.01587339594865416
0.01652539384240384
0.017173992057489717
0.017823608065156173
0.01847967693437367
0.019148552694296002
0.019837425956171457
0.02055425205152434
0.02130768251211611
0.02210699255894965
0.02296199129076285
0.023882797651723135
0.02487778867396649
0.025924392416915333
0.026532198995083835
0.0010077732947581307
0.001124122951739235
0.0013605995646541324
0.0016461701227341423
0.0019771398092511354
0.002354002657136464
0.0027768816666956667
0.003245173756228929
0.003757510664669833
0.004311760506416851
0.00490505195305143
0.00553381960813774
0.006193868085660586
0.006880450965694727
0.00758836210252388
0.008312053253406502
0.009045798427354859
0.009783942061606403
0.010521218457185757
0.01125307715794163
0.011975917507939499
0.01268713666646472
0.013385026335319137
0.01406862900872937
0.014737649843702155
0.01539253290233175
0.016034590965004956
0.01666616841540719
0.017290719196818734
0.017912818761185948
0.018538118480247265
0.019173280826901035
0.01982591274128785
0.02050450281336146
0.02121836066915888
0.021977553735362202
0.0227928287535872
0.023675400990994484
0.024634943588027466
0.025650901517487064
0.026243530975403256
0.0009455443148631575
0.0010621213568123128
0.001300915554360519
0.0015917918478330624
0.001930980058193643
0.0023188004211736253
0.0027551691446314848
0.0032392468001990592
0.0037693949590058514
0.004343170873362158
0.004957344275543627
0.005607937340526991
0.006290288913066884
0.00699914388253063
0.007728771484937961
0.008473119220016955
0.009226012889835699
0.009981401975693102
0.010733632078139172
0.011477701737427714
0.012209451895394706
0.012925661044111122
0.013624055017014008
0.014303275897090373
0.014962870230676476
0.015603314686643744
0.016226087763905838
0.01683374305835233
0.01742996480513518
0.018019582896238905
0.018608555723005987
0.01920393195284775
0.019813804842122022
0.02044726605179806
0.02111436042046284
0.021826038847190612
0.02259409705956948
0.023430984911796442
0.024347854833584
0.025326539014414395
0.025900529829666622
0.0008746851430670457
0.000991542560236888
0.0012330370335414261
0.0015300297911343943
0.0018786484048926876
0.0022790127154655175
0.0027308123638653675
0.003232955104085463
0.0037835145878495112
0.0043797140470208315
0.00501793291351037
0.005693740490622114
0.00640196099563731
0.00713677369696736
0.007891851345435873
0.008660539469346699
0.0094360748738466
0.010211834197431784
0.010981591730056438
0.011739757644110036
0.012481568903652894
0.013203217423660582
0.013901919784724732
0.01457594968261447
0.01522465681593083
0.015848492406583266
0.016449042059504638
0.017029061027874152
0.017592498026554652
0.018144502098515723
0.018691411446759322
0.019240730810288938
0.019801104067889392
0.020382287633509723
0.02099512619053893
0.021651528509879624
0.02236443154311111
0.023147640003512587
0.02401395545751236
0.02494798474265604
0.025499415543883717
0.0007956211662772413
0.0009127619379409661
0.0011572604258131545
0.0014611087236283975
0.001820304449371315
0.0022347444144227104
0.00270388177976717
0.0032263683868647033
0.003799986463580036
0.004421614514739252
0.005087218224981257
0.005791873973334972
0.006529832191161276
0.007294625695729593
0.008079225251833282
0.008876240615436643
0.009678159853704252
0.010477612869738435
0.011267638963029212
0.012041935310925195
0.012795066280673036
0.01352262204188599
0.014221326341452692
0.014889102499517607
0.01552511160077406
0.016129774461581012
0.01670478520578239
0.017253117706352575
0.017779024839410993
0.018288029803213545
0.018786911776094668
0.01928368990129222
0.01978761043697046
0.020309140433270575
0.020859968843662986
0.021453012415918352
0.022102414466153943
0.022823427118880347
0.023630646820088492
0.02451185013137707
0.025036304453460348
0.0007091565364601042
0.0008264868802327674
0.001074129645358174
0.0013854131030324145
0.001756180126950538
0.0021860895880074596
0.0026743630383746567
0.003219411923558089
0.003818742288730636
0.004468892442310913
0.005165399199891299
0.005902804410489937
0.006674712172166239
0.00747390331349934
0.00829250851478168
0.009122235317955321
0.009954637575783038
0.010781409788830569
0.011594684549060243
0.01238731064202983
0.013153092794268814
0.013886981044351937
0.014585206116276474
0.01524536493134353
0.015866464969896937
0.016448938174653788
0.016994633970290104
0.017506799311963077
0.017990051958424447
0.01845035240924586
0.018894979743784266
0.019332516671689972
0.019772848107071535
0.020227175940821487
0.020708050048618042
0.02122941210067652
0.021806639790749132
0.02245648602880237
0.02319545088710302
0.024014872044798147
0.024507424896090927
0.0006165809837943769
0.0007338456049452586
0.0009844915743393544
0.0013035074740610554
0.0016865651596702173
0.0021330836399109923
0.002642079274923504
0.00321176441664818
0.0038394094417100464
0.004521237075963328
0.005252350776899214
0.006026714233344339
0.006837196572009909
0.00767569195863202
0.008533314593024224
0.00940066150987364
0.010268127408194666
0.011126249120204509
0.011966053656796734
0.01277938400673902
0.01355918081702236
0.014299705286840983
0.01499669689774857
0.01564746772244479
0.016250941172307444
0.01680764687740933
0.017319684942165296
0.017790672552497937
0.018225685039877527
0.0186312018589656
0.019015066642061075
0.01938646856480457
0.019755950447280263
0.020135446267501453
0.020538347677850236
0.020979595119975835
0.021475780274975036
0.02204515839993379
0.02270619088903199
0.023454149099163976
0.02390938333441514
0.0005197760868912466
0.0006364724784208644
0.0008895430215214579
0.0012161433009963488
0.0016117741557361083
0.002075632866671271
0.0026065871977199
0.003202727139163041
0.0038611625595547385
0.0045778528467895485
0.005347478540526317
0.006163379563935907
0.0070175808532103945
0.00790091727817934
0.008803258794874565
0.00971382495910819
0.010621567097297861
0.011515588259332634
0.012385567018252597
0.013222151891578996
0.014017298557710289
0.014764530712939967
0.015459115828991692
0.01609815715909655
0.016680611778647852
0.017207250213050366
0.017680576301705945
0.018104726574615003
0.01848536724399617
0.018829604703997232
0.019145922441095437
0.019444154356296
0.019735501131257428
0.02003259311973743
0.0203495995247157
0.02070237885961347
0.021108655138104875
0.021588123094503413
0.022161197468929875
0.022827418980130017
0.023239481258593837
0.00042130629828786715
0.0005365771270437494
0.0007908592919545136
0.001124245331190246
0.0015320916049036085
0.0020134195824601433
0.0025670457728021326
0.003191062838982862
0.0038825435312422837
0.00463727537967019
0.005449548046800313
0.006312030350084442
0.0072157662776746075
0.008150306638931525
0.009103977521105568
0.010064270254027653
0.01101832249517759
0.011953448805486133
0.012857673796795546
0.013720222466314828
0.014531930051199023
0.01528554610495379
0.01597592197454313
0.016600084942174284
0.017157213916723698
0.01764853970762989
0.018077196859424008
0.01844805482083188
0.018767553784162214
0.019043566960112408
0.019285306059616727
0.0195032823882921
0.019709331196479697
0.01991670350037453
0.020140225973965822
0.020396525039898607
0.02070429957265818
0.021084541463531226
0.02155953590485065
0.02213337148076713
0.022496077260608958
0.0003244725732742044
0.0004369780188508088
0.0006903910245642281
0.001028872051481114
0.0014476949567391456
0.0019457865891153768
0.002522061575038301
0.003174807004258826
0.0039012517433561753
0.004697159112389945
0.00555649129261396
0.006471197639645773
0.0074311672123115215
0.00842436947974082
0.009437185432451195
0.010454907904548843
0.011462367487519557
0.012444624231262422
0.013387657590193235
0.014278989871120492
0.015108190697917896
0.01586722883916724
0.016550659524099565
0.01715565581052495
0.017681909087820805
0.018131434255410778
0.018508319664022672
0.018818461047852293
0.019069314076188927
0.019269693427833877
0.019429638775575193
0.01956036115280249
0.019674277299780822
0.019785135515449446
0.019908233922465598
0.020060731110162114
0.020262040207641524
0.020534217903907286
0.02090124596652339
0.021371985256404352
0.021678987888250196
0.00023329163622371534
0.0003410722283157291
0.0005904163332804172
0.0009311483995385824
0.0013585675582434777
0.001871614342650186
0.0024695194657484844
0.0031510602667424734
0.0039139141496417834
0.004754046294702625
0.005665200526955194
0.006638560112631752
0.007662636075060981
0.00872341890423361
0.009804799786231137
0.010889232182676869
0.011958570711472188
0.012994998562478778
0.013981943203049886
0.014904885142480664
0.015751984833813498
0.01651448322309491
0.017186865467951826
0.017766808151937225
0.01825495343042249
0.018654566512451558
0.01897113619420005
0.01921197374193012
0.019385855711003333
0.019502744863600176
0.019573611351504087
0.019610366638986323
0.01962591489311382
0.019634322019785433
0.019651101105902017
0.01969361444870382
0.019781600616871536
0.019937776749360876
0.020187608101090767
0.02054486727094967
0.02078987716980402
0.00015237120553134148
0.00025270925225614734
0.0004934283674553264
0.0008322031022637725
0.001264431113237792
0.0017891960195367436
0.002406411493505311
0.0031157834722157253
0.003915859173233932
0.004803140294629833
0.0057713302192545545
0.006810810391918065
0.00790842956420613
0.009047664817209243
0.010209170275082688
0.01137167493602332
0.01251313710448034
0.013612020518869308
0.014648538591587589
0.015605722925607215
0.01647020669551581
0.017232665424803343
0.01788791185685239
0.01843468929749267
0.018875239362682695
0.019214734684378038
0.019460665450273668
0.01962225634722445
0.019709971791845096
0.019735147667236965
0.019709770103412266
0.019646408246407985
0.019558298921260403
0.01945957650719338
0.01936564030288303
0.01929365588372862
0.019263189503681284
0.019297003443836995
0.019421393501769725
0.01965559926677853
0.019832741977372826
8.946813138293087e-05
0.00017592167745728146
0.0004020778855219466
0.0007331617308324634
0.0011646361813603121
0.001696107558684616
0.0023287047400278576
0.0030636497258891165
0.0039009490695536006
0.0048381301612019905
0.005869146007560643
0.0069835753360281095
0.008166251707284916
0.009397421129217
0.010653467303804034
0.011908157030797149
0.013134268106053103
0.014305389238029823
0.01539764996120106
0.016391155796327044
0.0172709675036306
0.018027551521292887
0.01865672061792832
0.01915915549474274
0.019539641558323106
0.01980616537875777
0.0199690026737755
0.02003990021088626
0.02003142028577528
0.019956484163590877
0.019828125643162435
0.019659448836401635
0.019463775618199907
0.01925496526653626
0.019047891400448554
0.018859063213011156
0.01870738939556909
0.018615010790619394
0.018608054758784787
0.018709975294240698
0.01881367936987651
4.426996959694871e-05
0.00011485825729341667
0.00031909474778483093
0.0006349240568910758
0.001058154777011318
0.001589422664806099
0.0022316690727504267
0.0029884210051293776
0.003861965305806184
0.004851581551420342
0.005951948764426785
0.00715192466983759
0.008433904403451585
0.00977393765822973
0.011142692675164823
0.012507217958206676
0.013833293403180374
0.015088034240019449
0.016242350941548203
0.01727290558216254
0.018163321139564276
0.018904562413795435
0.019494560201243776
0.01993726290869436
0.020241349297096076
0.02041883413344443
0.02048375497744899
0.020451070512072664
0.020335840010395897
0.02015270526194667
0.01991566221025891
0.01963809207794578
0.01933301650054651
0.019013545626920057
0.018693497287678617
0.018388177186249077
0.018115307924093337
0.01789613002579914
0.017755927123963903
0.017721517981645427
0.017746491302351997
0.0009715602993060221
0.0015004485208987431
0.002930352305701966
0.006070486536650904
0.007368113775374005
0.010226712495860798
0.011721237774745097
0.014636356178568765
0.015973662430105756
0.01823716367463739
0.01912041490985617
0.01982554106513641
0.020354402441931315
0.020715953907926424
0.02092423912523795
0.02099639078112888
0.01915691165733541
0.018736170030699127
0.01718502954298759
0.01692288776718563
0.01671176729428033
2.0367836589308787e-05
7.906055647625693e-05
0.00026060498176068734
0.0005589682003841651
0.002151175053434755
0.0038432705742759594
0.0048914663417404585
0.008763386515136525
0.013205403493873539
0.01718269754597578
0.02095088186552832
0.020806167707718416
0.02057976744767474
0.020287767649658617
0.01994469439457314
0.019563686938387836
0.018313675150642778
0.017902992875263767
0.01752017028579422
0.016762026348682346
1.4735533284857275e-05
5.916898596992372e-05
0.0002166099657663146
0.0004943662633129378
0.0008895815290722419
0.0014054122234409458
0.0020492339801002797
0.00283012767269658
0.003756019898180783
0.004830801850396393
0.006051564547859378
0.007406306312536782
0.008872542877600947
0.010417247663971948
0.011998389394851098
0.013568030670668443
0.015076577836041643
0.016477455369830224
0.01773134963968681
0.018809283381022054
0.019694101096164335
0.02038033542743391
0.020872754878480195
0.021184078034846704
0.0213323708714767
0.021338558226600548
0.02122433942706401
0.021010649958477394
0.020716692101651817
0.020359479444291208
0.01995380300322007
0.019512521611489978
0.019047093554293744
0.01856829158580295
0.018087072544175457
0.017615596526583913
0.017168427933957633
0.016763906517684207
0.016425811776929727
0.016183330569389708
0.01608637702185098
1.8243663440175116e-05
4.8661864599906224e-05
0.00018351135680174082
0.0004414148598041798
0.0008197564442103795
0.0013226617073139402
0.001959583261635529
0.002742293232682972
0.0036816435328248026
0.004784164292959321
0.006048716421683119
0.007463590296362417
0.009004616770761033
0.010634880664864238
0.012306448943807044
0.013964129652180805
0.015550757889987853
0.017013046865146195
0.018306847520381846
0.01940082775618791
0.0202780422066184
0.02093541685756606
0.02138161637183013
0.021633982206367655
0.02171522795286545
0.021650425856167114
0.021464606905227585
0.021181096970643958
0.020820564029230906
0.020400667057315934
0.019936166884190604
0.01943936718579793
0.0189207825045643
0.01838996666324277
0.017856469595836456
0.017330928790817192
0.016826289409646852
0.01635931197279326
0.015951684322708628
0.015636567325690468
0.015500027464945904
2.8258073235043473e-05
4.4503735235971264e-05
0.00015573460594738784
0.00039207854420809875
0.0007514516528226255
0.0012390564046375306
0.0018666571443988
0.0026491293966966014
0.0036007575132773304