# vtk DataFile Version 2.0
time_10.vtk
ASCII
DATASET UNSTRUCTURED_GRID
POINTS   4141  float 
4.848427917610917e-05         -8.948096184824648e-18        0.0                           
0.2500000000000007            4.592336483895918e-05         0.0                           
0.5000444915689538            -1.1793340503625287e-16       0.0                           
0.75                          4.1277864185293026e-05        0.0                           
1.0000394801982009            -2.900146250834047e-17        0.0                           
1.25                          3.5473352840976994e-05        0.0                           
1.500033256313794             -2.2336659311086216e-17       0.0                           
1.75                          2.8385905732436148e-05        0.0                           
2.0000257330883056            -5.754486746611944e-17        0.0                           
2.25                          2.0003803420645487e-05        0.0                           
2.50001693603773              -5.57101639854901e-18         0.0                           
2.75                          1.0428301606500224e-05        0.0                           
3.000007011160019             4.042772050915643e-17         0.0                           
3.25                          -9.668196803456855e-17        0.0                           
3.499996041171058             -1.792391687876368e-15        0.0                           
3.75                          -1.1945702866360039e-05       0.0                           
3.9999839750020256            7.000407208288305e-18         0.0                           
4.25                          -2.437214592860655e-05        0.0                           
4.499971365093785             9.263540901320459e-17         0.0                           
4.75                          -3.732565192860961e-05        0.0                           
4.999958249493762             3.3043628297981595e-16        0.0                           
5.249999999999999             -5.0759263548681e-05          0.0                           
5.499944653189042             5.790835500464608e-17         0.0                           
5.75                          -6.47069718869301e-05         0.0                           
5.999930509057253             3.578531920122677e-17         0.0                           
6.25                          -7.930426871459356e-05        0.0                           
6.49991564798577              8.256755131218019e-16         0.0                           
6.75                          4.8344863412876856e-05        0.0                           
7.000047113219626             3.5693258772471503e-06        0.0                           
7.250003827520827             4.435702743661377e-05         0.0                           
7.500042812396241             4.389992680236967e-06         0.0                           
7.750004691175911             3.934753387878938e-05         0.0                           
8.000037413946886             5.3243667541944564e-06        0.0                           
8.250005652430316             3.312122023329438e-05         0.0                           
8.500030756997038             6.321383049595626e-06         0.0                           
8.75000665828718              2.5590624591177275e-05        0.0                           
9.000022791654457             7.327498869205281e-06         0.0                           
9.250007656312217             1.6779601835730946e-05        0.0                           
9.500013576988557             8.294333619100475e-06         0.0                           
9.750008600447082             6.810022071229506e-06         0.0                           
10.000003249677988            9.180223210511816e-06         0.0                           
9.50383217616358e-06          0.2999957638393486            0.0                           
0.24999185288325793           0.30001007450708966           0.0                           
0.5000103247305278            0.29998377717209834           0.0                           
0.7499796345542448            0.30001080722320195           0.0                           
1.0000110403576061            0.2999711644885303            0.0                           
1.249966844114617             0.30001149499985796           0.0                           
1.5000117192173419            0.29995804382830643           0.0                           
1.7499535652169262            0.30001216958157806           0.0                           
2.000012399341913             0.2999444452671039            0.0                           
2.2499397977639806            0.30001287750950817           0.0                           
2.5000131297467285            0.29993030248406843           0.0                           
2.7499254408014195            0.3000136697459966            0.0                           
3.000013960890204             0.29991544583707236           0.0                           
3.249910292119811             0.3000145927359656            0.0                           
3.500006645630744             0.3000467002845823            0.0                           
3.7500453794981974            0.30000764585736917           0.0                           
4.000008195060549             0.30004241181022456           0.0                           
4.2500407463719245            0.30000937714773573           0.0                           
4.500010002974353             0.3000370150655839            0.0                           
4.750034938341362             0.3000113047138039            0.0                           
5.000011972498956             0.3000303462454549            0.0                           
5.250027828523371             0.30001332172719286           0.0                           
5.500013995455887             0.3000223539705125            0.0                           
5.750019402501095             0.30001532347820786           0.0                           
6.0000159716116075            0.30001309161026046           0.0                           
6.25000974149249              0.3000172245292622            0.0                           
6.500017828297841             0.30000266716033713           0.0                           
6.749998963397641             0.30001901931471414           0.0                           
7.000019592505188             0.2999912572675803            0.0                           
7.249987264951048             0.30002064717254223           0.0                           
7.500021140551513             0.29997904502529454           0.0                           
7.74997483415629              0.30002208599288294           0.0                           
8.000022543354886             0.29996623730131783           0.0                           
8.249961857970868             0.30002344150278953           0.0                           
8.50002388876812              0.29995294504764103           0.0                           
8.749948410691204             0.3000247975848038            0.0                           
9.000025266743584             0.29993917434575124           0.0                           
9.249934463568605             0.3000262539290801            0.0                           
9.50002677954976              0.29992482487665767           0.0                           
9.749919880423262             0.3000279125498226            0.0                           
10.000028526166053            0.29990969165107345           0.0                           
4.722820761823992e-05         0.6000099416556341            0.0                           
0.2500106675137591            0.600044699078467             0.0                           
0.5000432799417642            0.6000122722747785            0.0                           
0.7500131429698816            0.6000400817178051            0.0                           
1.000038285938615             0.6000149953121401            0.0                           
1.2500159653448841            0.6000342696488823            0.0                           
1.5000320409278638            0.6000179625318743            0.0                           
1.7500189773678823            0.6000271327213623            0.0                           
2.0000244535795897            0.6000210099254604            0.0                           
2.250022016735105             0.6000186554383656            0.0                           
2.50001554360772              0.6000239878422128            0.0                           
2.7500249449272367            0.6000089171950191            0.0                           
3.0000054129980156            0.600026794432228             0.0                           
3.250027687565399             0.5999980632324189            0.0                           
3.499994236843212             0.6000293991145395            0.0                           
3.7500302065075344            0.5999863126198455            0.0                           
3.999982227302413             0.6000317240077743            0.0                           
4.250032443491724             0.5999738468484194            0.0                           
4.49996956468415              0.6000338278148069            0.0                           
4.750034501675792             0.5999608388874108            0.0                           
4.999956400250104             0.6000358373427866            0.0                           
5.250036509899858             0.5999473739308189            0.0                           
5.49994278308033              0.6000378930760352            0.0                           
5.7500386154972185            0.5999334274958498            0.0                           
5.999928651150161             0.6000401512510595            0.0                           
6.250040975727421             0.5999188622519164            0.0                           
[...]
POINT_DATA  4141
SCALARS Con float 1
LOOKUP_TABLE default
0.00035632357799563846
0.00038450661966445154
0.00044014972852428786
0.000505196458883064
0.0005787164859915244
0.0006609260834844282
0.0007519917375393444
0.0008519336629326901
0.0009606110790504586
0.001077719184661216
0.00120279266031021
0.0013352149411710115
0.001474232248912843
0.0016189705707431545
0.0017684526108736269
0.001921609432332763
0.002077284473423942
0.0022342238849455773
0.002391387902041559
0.002550465572528431
0.002730278102194613
0.002910796408310574
0.0030724397585770577
0.003226230122995999
0.0033802286369692324
0.003533953489532339
0.003687597010549335
0.003841541599521024
0.0039964541061251165
0.004153232575750691
0.004312978157399391
0.004476970936936441
0.00464664954918453
0.004823592237461463
0.005009498158908893
0.0052061678915150955
0.0054154801538336345
0.0056393324746500635
0.005879112124902165
0.006128417654739854
0.0062720250300103775
0.00036189441598200267
0.0003907386597310123
0.0004475091710982878
0.0005137745402060241
0.0005886068462224017
0.0006721993685765116
0.0007646954408716683
0.0008660907390818955
0.0009762197491654703
0.0010947538647669913
0.0012212062659972614
0.0013549430545776425
0.0014952001953549136
0.0016411058415970964
0.0017917082844055125
0.001946014322276698
0.0021030506570346606
0.0022620637770535777
0.0024228705221936353
0.002589643909012877
0.0027587026878746115
0.0029251609137746137
0.0030869006273974635
0.003245985593221459
0.0034019222884333544
0.0035565634638338095
0.003710562823196018
0.0038646280633974506
0.004019579355186856
0.0041764075019136366
0.004336275976570154
0.004500512537106515
0.004670595692738951
0.004848139045215063
0.005034874216295434
0.005232632065600132
0.005443319541858697
0.005668860903316475
0.005910659364568357
0.00616241638534866
0.006307603854053848
0.0003587410744586951
0.00038756660882871406
0.00044444639525197
0.0005109860850737155
0.0005862370849011062
0.0006703850275900838
0.0007635623284002711
0.0008657528124749238
0.00097677886530404
0.0010963006438034044
0.001223822638018543
0.0013587076469755838
0.001500198851655496
0.0016474517174334508
0.00179958063587584
0.001955730596507311
0.0021152113286283
0.0022776558344379766
0.0024437087289112132
0.0026088764982364902
0.0027666704458969692
0.0029243632421647593
0.0030874975090868823
0.0032486834732002863
0.0034068640059407304
0.0035625562629489045
0.0037168062129334344
0.0038705356861758124
0.00402472519993518
0.004180465652437065
0.004338988956475762
0.004501674642119946
0.004670045687777613
0.00484575837071921
0.005030588574134167
0.00522641522816722
0.0054351986664419195
0.005658922043467673
0.005899059365943854
0.006149335570813242
0.0062937127527475855
0.00035327085835404917
0.00038212932067801354
0.0004392150421075335
0.0005062078429347954
0.0005821541396696131
0.0006672236371402098
0.0007615303239547479
0.0008650374078405586
0.0009775455754250004
0.0010986933332059374
0.0012279650091745386
0.0013647066713443595
0.0015081506943189498
0.0016574501396733744
0.0018117238654171235
0.0019701126883859073
0.002131811259719559
0.0022960620595099445
0.0024608640376814314
0.0026235850376737637
0.0027840349025556954
0.00294313740620388
0.003102172330539444
0.0032616043961005217
0.0034192335300489225
0.003574626765397764
0.0037282137760361127
0.0038808136390663848
0.004033412112035453
0.00418714509517898
0.004343297253201365
0.004503302970455197
0.004668742343204356
0.004841333011173343
0.005022918600839161
0.005215454062835651
0.005420985494424023
0.005641592917992455
0.005878857564109501
0.006126676967041416
0.006269856205196214
0.0003455391954299321
0.00037444593787355177
0.0004318362646249709
0.0004994810281046719
0.0005764167980805508
0.0006627912870915529
0.0007586914755169154
0.0008640501985421347
0.0009786352282337295
0.0011020502808029963
0.0012337434249708051
0.0013730228456115237
0.0015190797820816473
0.0016710172774437777
0.0018278805548872462
0.0019886732351515226
0.0021523365613172803
0.0023175180177766657
0.002482652457212224
0.00264644081011329
0.0028081629669725306
0.0029681576668335852
0.003126958709187541
0.0032844250414448832
0.003440267901164473
0.0035940201621960286
0.0037458255061067537
0.0038962807171453906
0.004046288864728317
0.004196972463873972
0.0043496413151341605
0.004505776395977482
0.004667019211041007
0.004835161537163628
0.00501213404846198
0.005199992681004365
0.0054008998091815376
0.005617068424759408
0.005850235757277353
0.006094544744254434
0.006236000692098396
0.0003354792411002074
0.00036446053781745706
0.00042226522530380134
0.0004907729755920296
0.0005690055130941065
0.0006570807790536029
0.0007550498298073621
0.000862804826218424
0.0009800686619386115
0.0011063960045547877
0.001241181110012801
0.0013836719826679754
0.0015329898685489856
0.0016881514689887748
0.0018480877884940897
0.0020116509502845848
0.002177585722244871
0.002344549607704817
0.002511214141896815
0.002676461490834561
0.002839653608802592
0.0030005695051770792
0.003159206012289887
0.0033155586706842253
0.0034694671893985055
0.0036208897105478835
0.0037699985639170373
0.003917319190100102
0.004063691697949657
0.004210218744756565
0.004358226050766573
0.004509238229608741
0.004664962395502875
0.004827275336789499
0.004998211631477747
0.005179950882436673
0.00537480047210655
0.005585142203486705
0.005812914659063114
0.006052579271033239
0.00619174109777386
0.00032302533062321734
0.00035211330073937045
0.0004104554731965178
0.00048005190834065595
0.0005599034295571935
0.0006500900483314648
0.000750617785151912
0.000861327943610546
0.000981886865520591
0.0011117864671458474
0.0012503509283634552
0.0013967490120053785
0.0015500109849083126
0.0017090479239440335
0.0018726703963823572
0.002039602982047669
0.002208508969441672
0.002378038507257315
0.002546922097651323
0.00271410008205231
0.0028788046145819847
0.0030405758062934103
0.0031991735252451083
0.003354467832444851
0.0035064210843711047
0.0036551086661493447
0.003800822160327804
0.003944115994315034
0.004085830910228566
0.00422707657672075
0.004369206840643765
0.004513797808246527
0.004662630980181624
0.004817680027733708
0.0049810994984964465
0.005155213637672088
0.005342501589241794
0.005545547538604822
0.005766533579025896
0.006000314869129701
0.006136551800449566
0.0003081217786892307
0.00033735432940606573
0.0003963692319603561
0.0004672942386734327
0.000549101877516591
0.0006418257321472329
0.0007454180022235154
0.0008596597491761649
0.0009841502831554182
0.0011183067321360346
0.001261369388051217
0.0014124126349056984
0.0015703609895469312
0.0017340094062441539
0.0019020471073990751
0.0020730875890006516
0.002245709265361987
0.0024185146508549694
0.0025902076547447703
0.002759672159736424
0.0029260314738087556
0.003088660630798702
0.003247161074029401
0.0034013245041230765
0.00355111038638616
0.003696664716282931
0.0038383497752362346
0.003976780411566436
0.004112838604996124
0.004247673036612365
0.004382686817899161
0.004519522588547891
0.0046600490133003915
0.0048063498407259955
0.004960715020191103
0.005125632557174591
0.005303777463849657
0.0054979667557116495
0.005710666185013111
0.00593720480859579
0.006069814531299418
0.0002907388777274306
0.00032015724507108
0.0003799884322147125
0.0004524924501161502
0.0005366049870899635
0.0006323046492123759
0.0007394818704918502
0.0008578495539443599
0.0009869313801471814
0.001126059787904663
0.0012743797169975858
0.0014308584748110968
0.0015943020639556963
0.0017633781359282484
0.0019366462304026208
0.0021125965469449
0.002289699351101269
0.0024664651394279225
0.0026415112428182443
0.002813625417907755
0.0029818126974154443
0.003145318603430465
0.0033036298228312014
0.003456463967854127
0.0036037641037461763
0.003745702497649239
0.0038826955019786377
0.004015417806810649
0.004144812049203386
0.004272089020867273
0.004398721571365562
0.00452643542797837
0.004657200328260199
0.004793223089471475
0.004936942876790191
0.005091027765597266
0.0052583691520502705
0.005442043618874156
0.005644838014906596
0.005862638284600617
0.0059908354266493625
0.00027089171150160513
0.00030053595848769096
0.00036132737408808916
0.0004356634309761193
0.0005224335801666023
0.0006215532934218044
0.0007328447942120983
0.0008559471209858399
0.000990302198686474
0.0011351502193093987
0.0012895310983366568
0.0014522930811886603
0.0016221095670591206
0.0017975049565380702
0.0019768900935204043
0.0021586076257934846
0.002340986738259161
0.0025224049684735533
0.002701352219948229
0.0028764896888920917
0.003046696598446374
0.00321110019940074
0.0033690899831964214
0.00352032158538365
0.0036647169030889484
0.003802465842847863
0.003934029878317498
0.00406014610654066
0.004181828678441631
0.004300366790123254
0.0044173196972336435
0.004534510944586932
0.0046540236978506195
0.004778198631459087
0.004909634704993668
0.005051192136842414
0.005205994273955067
0.005377398812069193
0.005568546554049049
0.005775965009521725
0.005898871970327432
0.0002486626047827735
0.000278564209987888
0.00034044691404255323
0.000416856895101549
0.0005066277417938459
0.0006096047035769481
0.0007255377704307565
0.0008539895521298207
0.0009943173046287673
0.0011456640455172861
0.0013069564019472625
0.001476911103362395
0.0016540518642348895
0.0018367378071390348
0.0020232037731929076
0.002211611856116246
0.0024001121663017443
0.002586909223320722
0.0027703287980182082
0.0029488792582609102
0.0031213019658376346
0.003286607564910261
0.0034440980334167325
0.0035933771009532775
0.0037343531041563937
0.0038672376770701802
0.003992542629437717
0.00411107546377991
0.004223933912421935
0.004332499651582721
0.004438432314289643
0.004543665177172113
0.0046504040436592484
0.004761130280879876
0.004878608246094399
0.005005896398716167
0.005146358828928259
0.005303648703833846
0.00548128691721906
0.005676527114484741
0.005793168089198983
0.00022422698664442017
0.0002543977128893526
0.0003174696552949294
0.0003961632023035343
0.0004892472502248643
0.0005964918398811698
0.0007175743972871314
0.0008519829911334828
0.000998991582175664
0.001157644321583102
0.001326747682679367
0.0015048733308961593
0.0016903742519064223
0.0018814156315241893
0.0020760205899730227
0.002272129305302738
0.002467668355658126
0.0026606255709067904
0.0028491245912058765
0.003031493147358272
0.003206319917876301
0.0033724967961093508
0.003529245742776757
0.00367613176332769
0.003813064834205036
0.003940294189101686
0.0040583979605442405
0.00416827056088566
0.004271109776661926
0.004368405231018166
0.0044619298499792475
0.004553735956229252
0.004646157192246363
0.004741817091618722
0.00484364433168904
0.004954893822485185
0.005079170341231117
0.005220427443503309
0.005382583032055913
0.005563698961859698
0.005672998552016774
0.00019788202632712193
0.00022829808653801071
0.00029259523197058287
0.0003737195375463103
0.0004703687627581518
0.0005822363077638338
0.0007089321684567608
0.0008498780060138112
0.0010042717081934676
0.0011710611748535905
0.0013489276152458124
0.0015362825826231526
0.001731282296710256
0.0019318612248642464
0.002135784852516139
0.0023407193185532383
0.0025443134416368862
0.002744286959165576
0.002938517863197407
0.0031251218355670216
0.0033025179637062078
0.003469477040419043
0.003625151174845253
0.003769085900031055
0.003901217648667305
0.00402186051212227
0.004131686440657141
0.00423170270586428
0.0043232301446581725
0.004407884957701899
0.004487566544476284
0.004564453182488483
0.004641006904158302
0.004719988222320351
0.004804480610111435
0.004897923700555845
0.005004151847330702
0.00512741203218786
0.005272024195313095
0.0054369349440194
0.00553772283941687
0.00017007632841121602
0.00020065694908125598
0.0002661140875738513
0.0003497129913162427
0.00045007841958642926
0.0005668312414384171
0.0006995268793245249
0.0008475374016143457
0.0010099999424582249
0.0011857747413078089
0.0013734151229392217
0.0015711555478836918
0.001776922811569252
0.0019883730742838775
0.002202954470180669
0.002417991899907711
0.002630787722186317
0.0028387299233079443
0.003039398389066622
0.0032306602541143426
0.003410747088778096
0.0035783092917842127
0.003732446249687851
0.0038727137265306254
0.003999112315311135
0.004112062157410884
0.004212369705665705
0.004301192111251491
0.004380004083200133
0.004450571332914299
0.004514933573343
0.004575399387319009
0.004634554241167451
0.004695282311192637
0.004760801938421758
0.0048347135762840795
0.004921056519489149
0.005024350044898422
0.005149306556638276
0.005295824941393053
0.005386848442779569
0.00014143750885810418
0.00017201725892345928
0.00023841740562885802
0.0003243787215371521
0.00042845871210128733
0.0005502175324555475
0.0006891794356401928
0.0008446956548786376
0.001015869267569837
0.0012014900090692759
0.0013999843500717367
0.0016093901608117687
0.0018273630892340362
0.0020512183844954134
0.0022780077318976357
0.002504626134975244
0.002727939923259024
0.0029449239666013084
0.003152795046611173
0.0033491291528679763
0.0035319530791778388
0.0036998045953936186
0.0038517598574762052
0.003987430717397006
0.004106937680921627
0.004210866144459124
0.004300213963034851
0.0043763381337095595
0.0044409070304858396
0.004495863365707617
0.004543401455170182
0.004585961137638892
0.004626239592205679
0.004667221543220008
0.0047122276879626186
0.0047649803885603656
0.004829683167417939
0.004911089497153737
0.005014278676729474
0.005140156388451626
0.00522010234305034
0.00011279251213429232
0.00014308733277592356
0.0002099997408475245
0.0002979916255973154
0.00040556925298154586
0.0005322538451357781
0.0006775754821951317
0.0008409099899225054
0.0010213697586257998
0.0012177035141872031
0.0014282172809624491
0.0016507295659819374
0.0018825706173480152
0.002120631115334169
0.002361459692804614
0.0026014022130218667
0.002836769729818849
0.003064017833599076
0.003279918543061728
0.003481707436747555
0.003667192977238218
0.0038348210110517996
0.003983693916611516
0.004113549551890068
0.004224709335611662
0.004318006757388514
0.004394707978614145
0.0044564348454963825
0.004505098650687792
0.004542850642866252
0.004572053113475617
0.004595273023651058
0.004615299002277997
0.0046351816513951465
0.004658296915593881
0.004688432235981003
0.004729893548164237
0.004787612268818259
0.0048669895832985435
0.00496998085270918
0.005037510014259833
8.517151900773938e-05
0.00011474039539517445
0.00018145102654841652
0.000270850572627415
0.00038142390004982827
0.0005126829894597328
0.0006642190733448714
0.0008355043990839341
0.0010257277618652791
0.0012336436744044088
0.0014574520710825818
0.0016947254030425525
0.0019423972435392816
0.002196820557892198
0.0024538953031973993
0.0027092552987021522
0.002958494972345827
0.0031974101410555686
0.0034222247455729478
0.0036297784327936314
0.0038176569470233074
0.003984257112407152
0.004128788108286103
0.004251219027484438
0.004352188027276245
0.004432890324421173
0.004494961475092586
0.004540369721268207
0.004571327347224807
0.004590227604631519
0.004599610350373626
0.0046021574778584585
0.004600717650925361
0.004598359344355006
0.004598451283824139
0.004604770083413789
0.004621636801586598
0.004654070250019087
0.004707742702393624
0.004785680950595929
0.004839470799222532
5.9789121743253506e-05
8.799174396381298e-05
0.0001534317546875367
0.0002432633864608568
0.00035597089093090495
0.0004910946821644165
0.0006483825786630036
0.0008275109474713507
0.0010278429353865076
0.0012482096493190219
0.0014867316949720738
0.0017407052266566851
0.0020065735957144554
0.002279998046503674
0.002556028793394426
0.002829362113169499
0.0030946544889766414
0.003346853860086211
0.003581505211799437
0.003794992826475448
0.003984694263787486
0.004149037211955118
0.004287466145295179
0.004400337700407501
0.004488770094472943
0.004554472887302216
0.0045995801395660825
0.004626504442643719
0.00463782309291335
0.004636202112575795
0.004624359589997759
0.004605067143382617
0.004581186961396565
0.004555741725156588
0.004532015206881064
0.004513682829219843
0.004504972090246708
0.004510857572004004
0.004537141823955841
0.004588039948465552
0.004626857836459878
3.7959624997861055e-05
6.393747435405822e-05
0.0001266649689069136
0.00021554451962132822
0.00032905785508795547
0.0004668827222049795
0.0006290618100395461
0.0008156207472273771
0.001026235400981627
0.001259919068760986
0.0015147612919292838
0.0017877515664946066
0.0020747218777571164
0.00237043182095303
0.0026688017445518513
0.002963274422588634
0.0032472607177904222
0.003514606316600905
0.003760011928788343
0.003979349348739554
0.0041698385926369555
0.004330078845618827
0.004459951447391476
0.004560429935865588
0.00463333921023735
0.004681103420725498
0.004706514001214541
0.004712538847910216
0.004702183355355335
0.004678406120065073
0.00464408683745341
0.004602041230696636
0.00455507749202054
0.004506089063526169
0.004458180612475838
0.004414824853226177
0.004380051000472054
0.004358648237290906
0.0043563420583746775
0.004378267135993233
0.004400942922277611
2.1176348926202136e-05
4.376436012691655e-05
0.00010192104436118648
0.00018794898171151266
0.0003004166281654211
0.00043928049007647724
0.0006050332843788955
0.0007982462817869506
0.001019103251282063
0.0012669605000443312
0.0015399637524717705
0.0018347748341982133
0.0021464619744912166
0.0024685975294245293
0.0027935787552180705
0.003113146600989532
0.003419032868793234
0.003703633864725502
0.00396059986364779
0.004185250193202121
0.004374765389555186
0.00452815695200317
0.004646056002558633
0.004730385667476083
0.004783985883678111
0.004810249506149154
0.004812810302437078
0.004795304983603559
0.004761215576936818
0.004713788010058035
0.004656017096926684
0.004590686673810207
0.004520454834613326
0.004447976896097731
0.004376062146196964
0.004307863584963829
0.004247099986038229
0.0041983168390596955
0.00416701950292824
0.004159105179914407
0.004164514736610613
0.0002769908021458207
0.00041629599137380343
0.0007853769398747112
0.0015744466508806876
0.001894040650193083
0.0025855755812104362
0.0029399219468998115
0.0036146609548362105
0.003915522664633489
0.004407841674394033
0.004591778060668364
0.004733254133768045
0.004834085935846009
0.004897527037593696
0.004927723439982769
0.004929224374385848
0.004475847918686804
0.004382058663588583
0.0040398244334016705
0.003981976792843747
0.003935256709476483
1.0943440224342175e-05
3.0496687485802455e-05
8.377687046533068e-05
0.00016626400682717327
0.0005853225819309313
0.0010173161054471236
0.0012809391575574452
0.002233753030136113
0.003286382721902711
0.004181589382000803
0.00490659502316452
0.004864147665622481
0.004805786812156301
0.004734951998106754
0.004654638206420938
0.004567474722340674
0.004288510828456023
0.004197932486821306
0.0041136373463818866
0.003946351314427866
6.877319509172564e-06
2.2849543907993007e-05
7.051683784174397e-05
0.0001482963942326661
0.0002552015199751036
0.00039188345396584076
0.000559960558797315
0.0007613488199273179
0.0009975252253654515
0.00126880128807842
0.0015736480316522984
0.001908170803307665
0.0022658493624283667
0.0026376509509534276
0.0030125706035991936
0.003378560404981148
0.003723703792788853
0.004037412659565106
0.004311411980304635
0.0045403360386251455
0.004721869979723539
0.004856482289842626
0.004946872737793197
0.004997287212219978
0.005012835184377317
0.004998903871651147
0.004960717524599315
0.004903051481956077
0.004830085838008403
0.004745371730579351
0.004651881053508757
0.004552114997751503
0.0044482530822749595
0.004342332465156678
0.004236454180246558
0.004133018422860875
0.004034999110284055
0.003946258050390027
0.003871933792409681
0.0038184749916275124
0.0037971391237822017
5.331339847411809e-06
1.7920718642773258e-05
6.023286188125657e-05
0.00013339651550414242
0.00023652262129774263
0.000370545140067481
0.0005376227326982682
0.0007403387691856348
0.0009808623055802873
0.0012600838584936882
0.0015767905184058298
0.001926992008589403
0.0023035520051721704
0.0026962761111284294
0.0030925448030708984
0.0034784560232978662
0.0038402931565205086
0.004166020676886808
0.0044464895527870085
0.004676121910171309
0.0048530008426668995
0.004978447261336822
0.0050562653882125375
0.005091862727753638
0.005091415839400907
0.0050611900242119165