# vtk DataFile Version 2.0
time_10.vtk
ASCII
DATASET UNSTRUCTURED_GRID
POINTS   4141  float 
0.00010500530803985007        -2.715935282647885e-17        0.0                           
0.2499999999999996            9.978241195548551e-05         0.0                           
0.5000968145056495            -1.886410240665769e-18        0.0                           
0.75                          9.00650648434859e-05          0.0                           
1.000086250118895             6.050877612695018e-17         0.0                           
1.25                          7.767650229404171e-05         0.0                           
1.5000729012242946            -8.579040714782994e-18        0.0                           
1.75                          6.235456082149026e-05         0.0                           
2.000056584358845             1.52405844161966e-17          0.0                           
2.25                          4.407465665069621e-05         0.0                           
2.5000373535056934            -2.2774950453535656e-17       0.0                           
2.75                          2.305047651597346e-05         0.0                           
3.0000155169597624            -4.9173966702759894e-17       0.0                           
3.25                          -1.5345707460762547e-17       0.0                           
3.4999912404417888            -3.785641808853395e-17        0.0                           
3.75                          -2.650707944329437e-05        0.0                           
3.9999643974914254            -1.7411444486811482e-17       0.0                           
4.25                          -5.427559189160325e-05        0.0                           
4.499936156060987             1.3761921666086484e-16        0.0                           
4.749999999999999             -8.342012183507114e-05        0.0                           
4.999906577160684             -7.905672578399281e-17        0.0                           
5.25                          -0.00011386141307357652       0.0                           
5.499875693653735             -2.847810198687612e-17        0.0                           
5.75                          -0.00014568990062919054       0.0                           
5.999843346747945             -1.8236594466634734e-16       0.0                           
6.25                          -0.00017920295798606496       0.0                           
6.499809172306325             -2.032208265064911e-16        0.0                           
6.75                          0.00010466999115121316        0.0                           
7.000102173917641             7.278048888726389e-06         0.0                           
7.250007891777993             9.648956463646568e-05         0.0                           
7.500093258627946             9.217025789771211e-06         0.0                           
7.750009921930772             8.592898065137844e-05         0.0                           
8.000081801967754             1.1396972509142471e-05        0.0                           
8.250012158738476             7.257439703240551e-05         0.0                           
8.500067463108577             1.3709412375938962e-05        0.0                           
8.75001448995481              5.624089988816781e-05         0.0                           
9.000050136691053             1.6041734340461555e-05        0.0                           
9.250016805731388             3.697882482794394e-05         0.0                           
9.500029947172525             1.8293428266855413e-05        0.0                           
9.750019010817908             1.5044082785569819e-05        0.0                           
10.000007180401596            2.038051501891078e-05         0.0                           
2.1139524664709433e-05        0.29999060175180753           0.0                           
0.24998191649183976           0.3000224994567858            0.0                           
0.5000231055895861            0.29996392750470724           0.0                           
0.7499546698832265            0.3000242843463998            0.0                           
1.0000248591770993            0.2999356779496433            0.0                           
1.2499259572637607            0.3000259897424116            0.0                           
1.5000265512083883            0.2999060864258512            0.0                           
1.749895937556884             0.3000276834442697            0.0                           
2.000028261614701             0.29987519717145256           0.0                           
2.2498645913979267            0.30002946112698153           0.0                           
2.500030089992305             0.2998428531515626            0.0                           
2.749831690871796             0.3000314235767935            0.0                           
3.0000321345945773            0.2998086885807727            0.0                           
3.2497968063670237            0.3000336590509474            0.0                           
3.500013378299442             0.3001011793152469            0.0                           
3.75009847056151              0.30001576419790543           0.0                           
4.000017061409702             0.3000922901538459            0.0                           
4.250088779102482             0.3000198333405484            0.0                           
4.500021292994821             0.30008083625977744           0.0                           
4.750076381461639             0.30002431826278714           0.0                           
5.000025866679056             0.3000664701816651            0.0                           
5.250061008728752             0.3000289926347522            0.0                           
5.50003055404827              0.30004908310358386           0.0                           
5.750042630193565             0.30003363710128594           0.0                           
6.0000351460929435            0.30002878695321533           0.0                           
6.250021415941628             0.30003807582107445           0.0                           
6.500039495378549             0.3000058061164599            0.0                           
6.749997609499981             0.30004230773244817           0.0                           
7.000043670914469             0.29998050667963705           0.0                           
7.249971620104807             0.30004620855955677           0.0                           
7.500047409229057             0.2999532661682025            0.0                           
7.749943833390257             0.3000497326841228            0.0                           
8.0000508671408               0.2999245100250996            0.0                           
8.249914632253486             0.30005311181073996           0.0                           
8.500054235640018             0.29989445709106366           0.0                           
8.749884156714685             0.3000565232752275            0.0                           
9.000057702517541             0.2998631021530991            0.0                           
9.249852328334718             0.30006017033171495           0.0                           
9.500061473629204             0.29983021840023705           0.0                           
9.749818847105374             0.3000642524289684            0.0                           
10.000065739457373            0.29979536765859355           0.0                           
0.00010198459908769376        0.6000200103090944            0.0                           
0.2500217481388415            0.6000968294430747            0.0                           
0.5000938883568576            0.6000255490521987            0.0                           
0.7500275945823226            0.6000871709906631            0.0                           
1.0000833592109948            0.6000319208982938            0.0                           
1.2500341769412702            0.6000747627701194            0.0                           
1.500069960686168             0.6000388099148655            0.0                           
1.7500411608717756            0.600059328366812             0.0                           
2.0000534988080085            0.6000458697118904            0.0                           
2.2500482049091275            0.6000408342550706            0.0                           
2.500034014233371             0.6000527883888176            0.0                           
2.750055022170804             0.6000194460339707            0.0                           
3.0000117194004345            0.6000593600012611            0.0                           
3.2500614666442402            0.5999954660814715            0.0                           
3.499986979759783             0.6000655323412124            0.0                           
3.750067468319473             0.5999693529320098            0.0                           
3.9999602377934402            0.6000711458834562            0.0                           
4.250072908078559             0.5999414795345527            0.0                           
4.499931863029497             0.600076331634113             0.0                           
4.750078012491896             0.5999122001697623            0.0                           
4.999902163227074             0.6000813644273073            0.0                           
5.250083057925014             0.5998816803635235            0.0                           
5.499871226495936             0.6000865386278914            0.0                           
5.750088349562357             0.5998498519191047            0.0                           
5.999838905744817             0.6000921700935653            0.0                           
6.250094201043679             0.5998164116048846            0.0                           
[...]
POINT_DATA  4141
SCALARS Con float 1
LOOKUP_TABLE default
0.0014416574028170035
0.0015780702042910628
0.0018494372728227917
0.002167663792384608
0.0025283985955561255
0.002932867470655153
0.0033820373356369545
0.0038761509243711557
0.004414661372671132
0.004996224794988799
0.005618724863415238
0.006279324984754351
0.006974542544603584
0.00770033611052183
0.008452191735351104
0.009225183291484126
0.01001401211438823
0.010812942976558377
0.011617775176650264
0.012435310988409455
0.013351571517547796
0.014280085118873955
0.015130886304479278
0.015943479408308786
0.016762270041297173
0.017585077122211013
0.01841309615537804
0.0192481924227139
0.02009351743816145
0.020953252749346608
0.02183247230987062
0.022737015447313564
0.023673374935133017
0.024648589361841056
0.025670135110819368
0.026745814547673306
0.02788363127615774
0.029091520767355317
0.03037495848807674
0.03170120797520892
0.0324621760423942
0.001470812261498828
0.001610662479659826
0.0018877521969524488
0.002212162830976051
0.0025795590387609597
0.002991055967186399
0.003447508289129799
0.003949039399988234
0.004494981885111327
0.005083875478653909
0.005713498154922842
0.006380926965953681
0.00708262576209895
0.007814557195343541
0.008572319599653325
0.009351333302318163
0.01014712551106967
0.01095634795923936
0.011777978868739766
0.012634471187364233
0.013506805396266525
0.014368273586299425
0.015211723017602022
0.016051350176491397
0.016880395882548808
0.0177085485838163
0.018539084028482016
0.01937549749505125
0.020221710234966245
0.021082375475267087
0.021962886370311192
0.022869328346553565
0.023808401334702578
0.024787328569361892
0.025813756374651647
0.026895645863882975
0.028041148697423215
0.02925833879083814
0.030552752959312895
0.03189207398439555
0.032661392138753846
0.0014573385505526313
0.0015969940359918486
0.0018744464974865297
0.002199998204438826
0.0025692312898664667
0.0029832354201905506
0.003442821577916074
0.003948063190806308
0.004498240108809055
0.005091842086169483
0.005726608061053279
0.006399600854835565
0.007107319943297097
0.007845860322547233
0.008611141450097037
0.009399254661891239
0.010207122845123208
0.01103318905163567
0.011881196148240082
0.012727532942055173
0.013544857753488876
0.014368001557232103
0.015219759374647366
0.01606738006603851
0.016907043719356574
0.01774022962283786
0.018571965861012542
0.019406673888209765
0.02024903399130204
0.021104187467764005
0.02197787371837191
0.022876451024503936
0.02380686351842107
0.0247765763415535
0.025793491566473876
0.02686584972037257
0.028002110065912373
0.029210672695817046
0.030497404653464063
0.031829831517655484
0.032595118782557476
0.001433762702565188
0.0015734209114671746
0.0018515660597394471
0.0021789706936430437
0.002551218984962296
0.0029693418749192355
0.0034340760159716813
0.003945407296194201
0.004502520606109376
0.005103809030212423
0.005746920352032379
0.006428841402985947
0.007146023250257088
0.007894552479723206
0.008670372324004815
0.009469555399652373
0.010288438098467712
0.01112361680146694
0.011965230418503872
0.012801594472951693
0.013631598474119018
0.014459986795721263
0.015293373756564367
0.016133367728472122
0.016970035439141735
0.01780157542544926
0.018629859902211342
0.019458761988083845
0.02029294654512977
0.02113776443531896
0.021999221276897435
0.02288396652372903
0.023799258576470465
0.02475290771560549
0.02575320009667528
0.026808804649179924
0.027928653219799794
0.029121652805410632
0.030394183130795883
0.031714510206951776
0.032473922969755015
0.0014004390074473722
0.0015400981245102248
0.0018192817501613764
0.002149357295886067
0.002525898209801862
0.002949854020295156
0.0034218514420876595
0.003941746809722709
0.004508580288741152
0.005120588650293029
0.005775253989434665
0.006469387447659117
0.007199246375179877
0.007960677491446987
0.008749264580716799
0.009560399742252666
0.010389173054023496
0.011229185313796599
0.01207320512811874
0.012915098686942296
0.013751795226482155
0.014585019226558615
0.015417301939991378
0.01624823329954516
0.017076471963689322
0.017899905494188198
0.018719239885992663
0.01953725245971009
0.02035819026407449
0.021187332030284466
0.022030817925853707
0.022895554767701994
0.023789146960556208
0.024719826780320555
0.025696375280947134
0.026728028543250862
0.027824355594365555
0.028994968657014578
0.030247042528711274
0.031550144358780514
0.03230137931485445
0.0013570740979731637
0.0014967843729375716
0.0017773950377833394
0.0021110092788394104
0.002493175965124027
0.0029247322770413918
0.003406157665338372
0.003937134259064477
0.004516504221000766
0.005142282999446308
0.005811705289275551
0.006521300783976188
0.007266993924370253
0.008044213909706605
0.008847983903275954
0.009672947677915851
0.010513218599305508
0.011362515572652986
0.012214612899444989
0.013064379017990273
0.01390888272459883
0.014747149238263577
0.01557922195896906
0.016405121180167022
0.017224195215233523
0.01803627792982097
0.01884218144226542
0.019644361834476914
0.02044675399502942
0.021254541410068713
0.022073959206054327
0.022912164701216296
0.023777140337896425
0.024677609119706227
0.025622949286764164
0.02662309928384033
0.027688438161294567
0.028829505189482543
0.030054579581030392
0.03133486701484327
0.032075061719465066
0.0013033892874222716
0.0014432217235939109
0.0017257020040624537
0.002063782598121972
0.0024529700944336307
0.0028939567739681518
0.003387036602205872
0.003931673467041397
0.004526459712870513
0.00516912722758583
0.005856587896378465
0.0065850000036169
0.007349854625367729
0.008146070326843013
0.00896808139968636
0.00980990352300753
0.010665256977768904
0.011527797635363385
0.012391585265312572
0.013251660897907835
0.014104432149950526
0.01494771629143477
0.01578035071399771
0.016601714103586383
0.017411625619350547
0.018210440201743158
0.018999505654132682
0.019781399227120185
0.02056005663345673
0.021340701394459028
0.02212972973595378
0.022934596788979144
0.023763718898058388
0.024626385904691142
0.02553267555628676
0.026493361987736105
0.0275198036764852
0.02862367825993664
0.02981459816687024
0.031065738700167215
0.03179168519205203
0.0012391616218535473
0.0013792065505315015
0.0016640432971746519
0.002007573141451612
0.0024052360488898603
0.002857545246439579
0.0033645726221643944
0.003925523754839569
0.00453869536071758
0.005201481950652337
0.005910409697474559
0.006661195609230311
0.007448828932958075
0.008267670187624358
0.009111564689310266
0.009973985955601805
0.010848230449229987
0.011727704427587617
0.012606284074145668
0.0134786803118198
0.014340698518920739
0.015189297807180499
0.016022485928783504
0.01683916991204492
0.01763906466534396
0.018422774034931474
0.019191930128429135
0.019949367931958915
0.02069920927835693
0.021446874407814148
0.022199029329662907
0.022963510409026725
0.02374924502583032
0.024566174612275227
0.025425178313956315
0.026337992074080534
0.027317109326914692
0.02837552991253286
0.02952441955672303
0.03073933353711981
0.03144739469603931
0.0011643007033723457
0.0013046542387777165
0.0015923573426175734
0.0019423541746129418
0.0023499883347193255
0.002815559275460049
0.0033388842174738235
0.003918877643432501
0.004553504348428281
0.005239778768947174
0.0059737910056719325
0.0067507604489951065
0.007565117950941155
0.008410617154025898
0.009280478750515499
0.010167574450717375
0.011064661562301712
0.011964665675766591
0.012860990826712517
0.013747809041113418
0.014620275001771325
0.015474636909044433
0.016308254919156686
0.017119574141264467
0.017908115873459002
0.01867450685728265
0.019420556201695516
0.020149333857145575
0.020865229835665692
0.02157396929689222
0.022282591672806603
0.022999405339416953
0.023733932383527116
0.02449685092742106
0.025299936548428804
0.026155999671351154
0.02707880537463758
0.028082843815535146
0.029181054567437494
0.030351812941122318
0.031037849243671433
0.0010789383144852848
0.001219679002995149
0.0015107403023695931
0.0018682156160479476
0.0022873183184462915
0.0027681008159374455
0.003310100141646373
0.003911917749028393
0.004571162808499068
0.005284439407022374
0.0060473614831025166
0.006854599892710676
0.00769996613818449
0.008576536472276523
0.00947681932392129
0.010392968141396517
0.011317036813504221
0.012241266658945761
0.013158381246927793
0.014061857545148524
0.014946143475950557
0.015806806142176694
0.016640615579173894
0.017445586740480423
0.018221004772443924
0.018967455135859852
0.019686860010501857
0.020382516291154763
0.021059120890599147
0.0217227772865901
0.02238098180821235
0.023042596292692452
0.0237178140147269
0.02441812467137593
0.025156279913632968
0.025946256803607893
0.026803205949200572
0.027743255269963803
0.028781324279693633
0.029899070935488433
0.03055837833932313
0.000983534365582691
0.0011246859178980842
0.001419512475178302
0.0017854029244063767
0.002217405181238818
0.0027152957478957756
0.0032783172684357977
0.0039047516053293775
0.004591844897481237
0.005335774710138768
0.006131647495016108
0.006973534713494155
0.007854555403941534
0.008767010378433457
0.009702569793339047
0.010652511224285252
0.011607999274979625
0.012560390270690454
0.013501539292582082
0.014424084087051859
0.015321684261988242
0.016189203629128922
0.017022835840352826
0.017820183045171363
0.018580302505858147
0.019303733700280823
0.01999251470149683
0.020650189742804186
0.021281808383728687
0.021893915622237782
0.022494535311973013
0.023093150900758867
0.023700688416793916
0.024329505008322386
0.02499338372391386
0.02570753133979463
0.02648856576433587
0.027354367652654095
0.028322014814208107
0.0293769211806746
0.030004187842331352
0.0008789974948055935
0.0010204737117518838
0.001319288186142804
0.0016943521564762398
0.00214051593102087
0.0026572601658343864
0.003243536106485996
0.003897321051292766
0.004615512314177338
0.00539386214959642
0.006226947423631213
0.007108187061157237
0.008029918593722714
0.008983540477993194
0.009959720763827631
0.010948665711632444
0.011940434541113407
0.012925279976968112
0.01389399000294675
0.014838206020239369
0.015750696773717376
0.01662557526409179
0.01745845496318316
0.018246549946582855
0.01898872844218078
0.01968553150052421
0.020339167483673974
0.02095349132284611
0.021533975728959053
0.02208768047044436
0.02262322549046153
0.023150773539848776
0.023682026750665126
0.02423023980533572
0.0248102493173725
0.0254385152940625
0.026133160530928963
0.026913886971803913
0.02780006549978393
0.028781336305790568
0.029370626194908406
0.0007668156770314644
0.0009083435572765302
0.0012110441995915662
0.0015957159557549237
0.002056989227349763
0.0025940441540134697
0.003205568857803311
0.003889281221959558
0.004641773256199382
0.005458396131750891
0.006333186811529592
0.007258855460423086
0.008226849610987966
0.009227503951341158
0.010250275612237769
0.011284055085126221
0.01231753387047833
0.01333960295762306
0.014339752678936139
0.01530844528751803
0.016237436403059163
0.017120029601928193
0.017951257550646943
0.01872799185288037
0.019448990394903005
0.02011489513007261
0.020728195018599207
0.021293168593404233
0.021815819743471312
0.022303818425565593
0.022766456508283527
0.02321462676337819
0.023660830859415578
0.024119219105135044
0.024605661141830357
0.025137842220562118
0.025735369762756585
0.02641977367952911
0.027212791889254115
0.028108739551986603
0.02865351279339021
0.0006491877220629738
0.0007902049611214388
0.0010961786841815356
0.001490373543010475
0.001967197034682668
0.0025255479604036992
0.0031639152664733237
0.0038798441832378163
0.0046697053051081416
0.0055285047058094665
0.006449745669717345
0.007425369916996483
0.008445801247773702
0.00950010378991233
0.010576254211393327
0.011661513846766712
0.012742874780521147
0.013807545315134692
0.01484343642909581
0.01583961230398468
0.01678667449423286
0.01767705917279372
0.018505238387963835
0.019267827256979998
0.019963608139307684
0.02059348907712329
0.021160417194409586
0.021669268463517563
0.02212673407754847
0.022541221234305783
0.022922782878541013
0.023283087692600138
0.02363543782251512
0.023994838224986447
0.024378117135038773
0.024804091619365084
0.02529375994699239
0.025870409330316854
0.02655813990683931
0.027356346757852496
0.027849528831749504
0.0005291385528910641
0.0006686638355425221
0.0009765489967081734
0.0013794162879824704
0.0018714792613902871
0.0024514078756831398
0.003117604291930622
0.0038675848612133405
0.004697639067480005
0.005602529100561513
0.006575254705709866
0.007606925605693084
0.008686773942171646
0.009802323761128464
0.010939716433254686
0.01208417218828754
0.013220551367118624
0.014333967204419285
0.01541039705384696
0.016437241611766164
0.01740379096904323
0.018301570339587257
0.019124554328974506
0.019869253946368768
0.02053469313874762
0.021122300430352223
0.021635745587715013
0.022080752166269913
0.02246491429434029
0.022797542216191898
0.02308955571026548
0.02335343965135462
0.02360327068693292
0.023854820023940303
0.02412573312506436
0.02443578172087247
0.024807169623500408
0.02526477504289184
0.025834965258943528
0.026522551676220054
0.02695666325889927
0.0004105922105196835
0.000547069900666549
0.0008544722211156745
0.0012641020403205139
0.0017700510907386626
0.0023708556399707247
0.003065005661165568
0.0038502115562920464
0.004722904100755867
0.005677767705437675
0.006707363361781041
0.007801901145695761
0.008949206835768218
0.010134907123953828
0.011342832325973187
0.012555608852150709
0.013755389112857544
0.014924649602862968
0.016046980792816894
0.01710779696812988
0.018094908722264283
0.018998922100054525
0.019813452378970507
0.020535162729588
0.021163655839440042
0.02170125793348163
0.022152739639177
0.022525017409216603
0.022826874411469824
0.023068732593294942
0.023262499486997313
0.023421505594935926
0.02356054166285738
0.023696000370621025
0.023846123960291118
0.024031358114756207
0.024274801610045613
0.024602647995346213
0.025043327537745148
0.025607339200528146
0.025974704929406126
0.0002983585001546979
0.0004294895431442793
0.0007326727591772314
0.0011457755276058274
0.0016628964625052182
0.002282566486304869
0.0030036205574254294
0.0038243104400176465
0.004741547657955416
0.005750195606304751
0.006842491723208373
0.008007676238040719
0.009231891213847038
0.010498386575064803
0.011788034584410727
0.013080114020901574
0.014353288153986272
0.015586673743291209
0.016760887857140305
0.017858967025876315
0.018867077166635705
0.019774966892020143
0.02057615416442087
0.02126786968097373
0.021850805370478798
0.022328730494505174
0.022708041686295973
0.022997308780273694
0.02320686804489555
0.023348502103496045
0.023435232670576126
0.0234812413846721
0.02350192509694903
0.023514086644427303
0.023536260322227186
0.023589172912587265
0.023696351181140718
0.023884818432826773
0.024184814674199844
0.02461269999711669
0.024905719919956437
0.00019799841191462395
0.0003205657077865078
0.0006141521663277503
0.001025793252340896
0.0015496826357316179
0.0021845006510536995
0.0029298653121435526
0.003785088352972309
0.004748053811365289
0.005814186400414246
0.006975591094222896
0.008220473773222383
0.009532935722390508
0.010893203040433282
0.012278300513818957
0.013663117376660473
0.015021753012722447
0.016328986459346474
0.017561696569755147
0.018700073915280897
0.01972850576975509
0.020636073397123002
0.021416660103091595
0.022068720165575404
0.022594792866199333
0.023000861975446457
0.023295659694589976
0.023490001244490105
0.023596216317026922
0.02362772216821974
0.023598763470607978
0.023524328562226415
0.023420241079343547
0.023303420240908066
0.02319230140140471
0.02310741323713562
0.023072111194389726
0.023113504156372734
0.02326285317939079
0.02354305020879641
0.023754637051572304
0.00011832163719843106
0.00022520451047797427
0.0005021262251213799
0.0009055150587054966
0.0014296200906331114
0.0020737328886087075
0.0028388955779473967
0.00372617789869663
0.004735127702114719
0.00586229250302251
0.007099960676903433
0.008435269400411664
0.009849828924827385
0.011319967807493569
0.012817630318383127
0.014311857826876329
0.01577068663761279
0.017163218580974093
0.018461592058782315
0.019642606047738608
0.020688823006042342
0.02158907453823467
0.0223383936738151
0.022937475215823126
0.023391812674452138
0.023710672256828165
0.023906051391842372
0.02399173814912359
0.023982551276650305
0.023893805000241262
0.023741014158344984
0.023539835359741218
0.023306229170987743
0.02305682418677304
0.02280946593642285
0.02258393521890404
0.02240283376298479
0.022292550340159756
0.022284152264153017
0.022405548317181445
0.022528992218384235
6.023365657889941e-05
0.0001485240667990227
0.0003999408888398479
0.000786034059080404
0.0013014430933343747
0.0019466993298919834
0.0027249897085453623
0.0036400853909385046
0.004694165468491633
0.0058857385341428625
0.007207801061023197
0.008646466604902826
0.010180299633686916
0.01178054556724335
0.013412336834645473
0.015036795024329683
0.01661377339981396
0.018104849335055077
0.019476121195792565
0.020700415119214506
0.021758640591918354
0.022640212223487142
0.023342621114618028
0.023870360336353983
0.02423346326190072
0.02444591249394624
0.02452413155927286
0.024485709192149097
0.024348439446978235
0.024129706547558416
0.023846204109560853
0.023513957089258547
0.023148607449371902
0.022765928320787766
0.022382541125945322
0.02201682317399562
0.021689989968423883
0.02142737926484872
0.02125904811197951
0.021216866195110276
0.021245827900871286
0.0011975796352926944
0.0018414098495676118
0.0035753735083360267
0.007359987223965948
0.008916643505365182
0.012333991637551684
0.014115264764901292
0.017581922703191626
0.0191699228633998
0.02185674256562246
0.022905658599075087
0.023743706172325862
0.02437296315042326
0.024803767859753755
0.025052433499178815
0.025138956874755532
0.022936430399808107
0.022431796967169335
0.020571807746722223
0.020257226752381032
0.02000206589912853
2.8835041362352607e-05
0.0001027831518295582
0.0003277096438677112
0.0006937624136979716
0.002631539789977261
0.004678569500412835
0.005942166053860021
0.010586508193994528
0.015881314973786403
0.020605045541677143
0.025084999478668223
0.02491230452931786
0.024641612263018853
0.024292060562724378
0.023881014523990083
0.023424251249141725
0.0219250857204726
0.021432621643723587
0.0209736414749987
0.02006340161881581
1.9989625972639274e-05
7.672720728591117e-05
0.00027304194683157193
0.0006148173484960804
0.0010983911392151893
0.0017273569949534245
0.0025102093619981756
0.003457292093082905
0.004577359392410717
0.005874157548667237
0.007343203860316328
0.0089691907295479
0.010724509662815703
0.012569363115103949
0.014453725496285857
0.01632105809046851
0.018113267573846528
0.01977606550623224
0.02126377261425346
0.022542764133298226
0.023593113298373086
0.024408415987535684
0.024994134735567178
0.025364998956148084
0.025542033866442895
0.02554970125682605
0.02541348382469227
0.025158082604490685
0.02480626330367908
0.024378296913696113
0.023891894328605907
0.023362525590638308
0.022804028369921535
0.022229437661671462
0.02165200163257792
0.02108637579825758
0.020550031907903818
0.02006486253564197
0.019659129013424256
0.01936738886480129
0.01925003511061489
2.2404345783827824e-05
6.238718520612367e-05
0.00023179157576110867
0.0005501014746558402
0.0010139648286050333
0.001628171119127365
0.0024037263543985085
0.0033541877756577783
0.004491754807412718
0.005823216558998388
0.00734603742467128
0.009045056756820578
0.010890460230962897
0.012837675299994813
0.014829606279280665
0.016801154806830813
0.018685391002480713
0.02042025821181805
0.021954519209838392
0.02325186968454918
0.0242926637501464
0.025073299117230892
0.02560378592364005
0.025904260187668778
0.026001203977017006
0.025923973356418103
0.02570200652908805
0.0253628637149075
0.024931082746142655
0.024427734589090457
0.02387052366129007
0.02327428277220065
0.022651742722593047
0.022014497310836652
0.021374124013947157
0.02074346533834623
0.020138060206474795
0.019577912312104415
0.01908876905815329
0.018709966002956276
0.018545238205334894
3.291624934006169e-05
5.589397669972834e-05
0.00019704366013349246
0.000489740225973137
0.0009313061258943194
0.0015278644662651327
0.002293226129514937
0.003244668391709395
0.004398447908914958