# vtk DataFile Version 2.0
time_10.vtk
ASCII
DATASET UNSTRUCTURED_GRID
POINTS   4141  float 
1.4526898865536513e-05        -4.076301711396909e-15        0.0                           
0.24999999999999997           1.373533357304229e-05         0.0                           
0.5000132962142939            -7.276485939379775e-18        0.0                           
0.75                          1.2317201195881496e-05        0.0                           
1.0000117726202091            3.430775255118297e-18         0.0                           
1.25                          1.05644133403632e-05          0.0                           
1.5000098984453507            -7.246379865490953e-18        0.0                           
1.7499999999999984            8.440058438130676e-06         0.0                           
2.0000076477931334            1.0214384671619546e-17        0.0                           
2.25                          5.940511005975841e-06         0.0                           
2.5000050280393737            -6.264412879378924e-17        0.0                           
2.750000000000004             3.095284000406821e-06         0.0                           
3.000002081461797             -1.7065499604426783e-17       0.0                           
3.2499999999999996            1.7898719416535685e-16        0.0                           
3.499998835343781             -8.52206660583729e-18         0.0                           
3.7500000000000004            -3.516993221278518e-06        0.0                           
3.999995281984531             -1.0787624138819935e-15       0.0                           
4.25                          -7.173347566731429e-06        0.0                           
4.4999915740146745            2.559900909745572e-17         0.0                           
4.75                          -1.0977107826165406e-05       0.0                           
4.999987725388327             -1.3999104454515714e-16       0.0                           
5.25                          -1.4913417110103375e-05       0.0                           
5.499983744243908             -9.52292046413239e-16         0.0                           
5.75                          -1.8991754125236367e-05       0.0                           
5.999979611258851             -6.495282585094924e-17        0.0                           
6.25                          -2.325175778358577e-05        0.0                           
6.49997527678474              6.80166910822954e-15          0.0                           
6.750000000000001             1.4487299560871224e-05        0.0                           
7.000014105476169             1.1034556320998178e-06        0.0                           
7.250001177130353             1.3258062192218705e-05        0.0                           
7.50001278650278              1.3381803903654197e-06        0.0                           
7.75000142463938              1.1735031748233378e-05        0.0                           
8.000011151146111             1.6067330897762488e-06        0.0                           
8.250001701195325             9.860154579163025e-06         0.0                           
8.500009151532652             1.8939419082767144e-06        0.0                           
8.750001991040037             7.607365114962743e-06         0.0                           
9.000006772754574             2.1838746727003696e-06        0.0                           
9.250002278574765             4.983621697145805e-06         0.0                           
9.500004032178325             2.462179601395121e-06         0.0                           
9.750002550187808             2.024821851984126e-06         0.0                           
10.000000970389983            2.7166809318748844e-06        0.0                           
2.808467198037477e-06         0.2999987580730495            0.0                           
0.24999760451835074           0.30000297068797827           0.0                           
0.5000030420234309            0.29999522562215447           0.0                           
0.7499940065742386            0.30000317912741953           0.0                           
1.0000032451757614            0.2999915166956257            0.0                           
1.2499902480151455            0.30000337366990254           0.0                           
1.500003436925476             0.2999876665868674            0.0                           
1.74998635426545              0.3000035638722769            0.0                           
2.0000036286366587            0.29998368479272014           0.0                           
2.249982325854922             0.3000037635695679            0.0                           
2.50000383487997              0.2999795522007516            0.0                           
2.7499781333980597            0.3000039879472308            0.0                           
3.0000040707204096            0.2999752190120287            0.0                           
3.249973717386343             0.3000042509197662            0.0                           
3.5000020665064526            0.30001398825454884           0.0                           
3.7500135810313635            0.3000023515269406            0.0                           
4.000002508626874             0.3000126729530489            0.0                           
4.250012166587656             0.30000284771505586           0.0                           
4.500003027609688             0.3000110381290619            0.0                           
4.750010412806455             0.30000340231086065           0.0                           
5.000003594698803             0.30000903506515575           0.0                           
5.250008281948092             0.3000039835420171            0.0                           
5.500004177699552             0.30000664848644115           0.0                           
5.750005769740604             0.3000045602273494            0.0                           
6.000004746763995             0.30000389433784846           0.0                           
6.2500029005118725            0.30000510689861687           0.0                           
6.500005280100565             0.30000080569194437           0.0                           
6.7499997106106875            0.3000056202740847            0.0                           
7.000005783473523             0.2999974354129973            0.0                           
7.24999625844075              0.30000608366656917           0.0                           
7.500006223886777             0.29999383830152426           0.0                           
7.7499925999579435            0.30000649188998296           0.0                           
8.000006621215748             0.2999900745687369            0.0                           
8.249988789507212             0.3000068746965242            0.0                           
8.50000700077101              0.2999861769459285            0.0                           
8.749984849250794             0.3000072568953681            0.0                           
9.000007389203521             0.29998214761082187           0.0                           
9.24998077109989              0.30000766807510365           0.0                           
9.500007816906008             0.29997795732884486           0.0                           
9.749976515202201             0.30000813866547527           0.0                           
10.000008313470273            0.299973545826671             0.0                           
1.4170115456901889e-05        0.6000030918120464            0.0                           
0.25000329834904844           0.6000133879839042            0.0                           
0.5000129526276316            0.6000037568998444            0.0                           
0.7500040064863015            0.6000119782367961            0.0                           
1.000011434240266             0.60000453866866              0.0                           
1.2500048178139351            0.6000102233125035            0.0                           
1.5000095539431857            0.6000053931066546            0.0                           
1.7500056855844723            0.6000080845525408            0.0                           
2.0000072846449544            0.6000062713786557            0.0                           
2.250006561439439             0.6000055574917171            0.0                           
2.5000046324109224            0.6000071288386954            0.0                           
2.7500074039977496            0.6000026661680034            0.0                           
3.0000016281845254            0.6000079346746475            0.0                           
3.250008190248871             0.5999994544465244            0.0                           
3.4999983242710915            0.6000086786704182            0.0                           
3.750008908588065             0.5999959868868796            0.0                           
3.99999478346289              0.6000093399059417            0.0                           
4.250009543937229             0.599992317882008             0.0                           
4.4999910595063914            0.6000099355671625            0.0                           
4.750010125803676             0.5999884981623629            0.0                           
4.999987196674221             0.6000105023547254            0.0                           
5.250010691847683             0.5999845528243289            0.0                           
5.499983209549597             0.6000110817451374            0.0                           
5.75001128565406              0.5999804749021409            0.0                           
5.999979080127055             0.6000117201036544            0.0                           
6.250011953976712             0.5999762241859622            0.0                           
[...]
POINT_DATA  4141
SCALARS Con float 1
LOOKUP_TABLE default
3.424098563441551e-05
3.6712394849829126e-05
4.1603105236605076e-05
4.730830701541857e-05
5.374209543300638e-05
6.0920641458179345e-05
6.885606254635387e-05
7.754791242797537e-05
8.698190781395174e-05
9.712968306030053e-05
0.00010794911032987674
0.00011938513028257776
0.0001313710086561448
0.00014382987206191272
0.00015667627852852258
0.00016981739298554466
0.00018315357292788962
0.0001965775715558931
0.00020999996348215543
0.00022353934903146706
0.0002386807165019858
0.00025384812046680004
0.00026750597561564396
0.0002804893293828581
0.00029345323420594847
0.00030635933449916
0.0003192265852364929
0.000332090321402324
0.0003450099431650975
0.00035806453763375637
0.0003713505786098358
0.0003849799489092844
0.0003990782537562874
0.00041378327678229807
0.00042924345184762274
0.00044561626751636954
0.0004630663367641835
0.0004817602839453212
0.0005018208926651651
0.0005227064324756277
0.0005347343093001763
3.475136283940685e-05
3.727973663670767e-05
4.226865604777703e-05
4.807954654005035e-05
5.462672522830174e-05
6.192433962303808e-05
6.998249120004041e-05
7.879860262665644e-05
8.835624738306852e-05
9.862499528849003e-05
0.00010956084753959656
0.00012110721839356062
0.00013319642390694603
0.00014575163962883658
0.0001586893323207061
0.00017192253069646404
0.0001853658540959585
0.0001989516538715958
0.00021265629683786153
0.00022681284266003318
0.00024111360982610554
0.0002551658997401504
0.0002688026475132246
0.00028220273107806186
0.00029531357128293514
0.000308286165984367
0.0003211757484934534
0.000334043690374702
0.0003469616810009936
0.00036001631191313644
0.00037330914394971743
0.0003869559716939632
0.0004010856925010702
0.0004158390118917668
0.0004313670478494719
0.0004478297956170542
0.0004653942033251689
0.0004842291093807973
0.000504458667578892
0.0005255501645570159
0.000537710704586495
3.446096525903098e-05
3.698857710516292e-05
4.198855328766115e-05
4.782518259684525e-05
5.441077922252075e-05
6.175871650856385e-05
6.987803805530156e-05
7.876502967691783e-05
8.84021020100562e-05
9.875772705840879e-05
0.00010978700850018025
0.00012143288914356331
0.00013362804765323374
0.00014629761128568308
0.00015936306962685697
0.0001727481759426269
0.00018638987153228248
0.00020025092660631562
0.00021437759210975193
0.00022839965465906747
0.00024180952554434676
0.00025517898822873523
0.0002689326672818348
0.0002824889288218037
0.00029577088717584846
0.0003088194445375033
0.0003217212491910861
0.00033455442020647496
0.0003474033078628992
0.0003603624198679407
0.0003735387588540183
0.0003870522597851571
0.00040103539170937826
0.00041563230470014
0.00043099769774628997
0.0004472954766698761
0.00046469695169075995
0.00048337582545637483
0.0005034623044901137
0.0005244264708684726
0.0005365182336428014
3.3958009513221586e-05
3.6489874744461276e-05
4.1510588697728404e-05
4.73899247582889e-05
5.4039532863241625e-05
6.147121277096756e-05
6.96922323624753e-05
7.869691236759808e-05
8.846560306285127e-05
9.896471267195483e-05
0.00011014739562854624
0.00012195491775498905
0.0001343187525213516
0.00014716349652866396
0.00016041066772084177
0.00017398341940929923
0.00018780932615876576
0.0002018206516397007
0.0002158501453257733
0.00022968602981899812
0.0002433083348858099
0.00025678517988996576
0.00027021396532899143
0.0002836295218086135
0.00029685991147159835
0.0003098750104993971
0.00032271278447817633
0.00033544360794091185
0.0003481524114818242
0.0003609373984876772
0.0003739098639808528
0.00038719420024933685
0.00040092752094455093
0.0004152589701251048
0.00043034877964855903
0.00044636708351397506
0.00046349227471388074
0.0004819061551324443
0.0005017480612565413
0.000522503119844419
0.0005344929856836944
3.324689143284253e-05
3.5785003302932964e-05
4.0836297069077914e-05
4.677710073083619e-05
5.351786873991824e-05
6.106823510776143e-05
6.943287928578166e-05
7.860324877800726e-05
8.85566037303535e-05
9.925610527044126e-05
0.00011065153859190157
0.00012268067385320033
0.00013527124098802122
0.0001483434108865378
0.0001618124495736606
0.0001755902830833253
0.00018958423587102447
0.00020367873878748683
0.00021774299708596416
0.00023166777772460373
0.00024539123774130957
0.00025893614283376855
0.00027234160055811707
0.00028559516447540474
0.0002986750663309591
0.0003115475678085264
0.000324228905063913
0.0003367722845213293
0.00034925647288433986
0.00036177889309195666
0.00037445305926944565
0.00038740724980951724
0.0004007836328854132
0.0004147374245250154
0.00042943598691639316
0.00044505775439260064
0.00046179073737043913
0.0004798278295305047
0.0004993215285954489
0.0005197775734856291
0.0005316199833170072
3.232120288980468e-05
3.4868543974186116e-05
3.9961363391560454e-05
4.598359357739434e-05
5.284396013263885e-05
6.054918491334486e-05
6.910051976344059e-05
7.84855843229157e-05
8.867745934422588e-05
9.96347830036038e-05
0.0001113024354419724
0.00012361278034972155
0.00013648738141416354
0.00014983898348702837
0.000163573275301955
0.00017758974798358682
0.0001917797335698552
0.00020602843639556687
0.0002202229779005324
0.00023426839347913509
0.00024810890507744526
0.00026172318381140696
0.000275108575936328
0.0002882638858162785
0.0003011774543608249
0.0003138490435456898
0.00032629716237650745
0.0003385697847351821
0.00035074109700161996
0.00036290731952236965
0.0003751835425553904
0.00038770177468185237
0.0004006096323555557
0.00041406932017254715
0.00042825671995449344
0.0004433604213288354
0.00045958039115356154
0.00047712351206024656
0.0004961590142051507
0.0005162195392569317
0.0005278660911237338
3.117444399957101e-05
3.373459455683651e-05
3.888121111874359e-05
4.500628550021698e-05
5.201617691638391e-05
5.991391419947962e-05
6.869646295724698e-05
7.834666837584214e-05
8.883236401446293e-05
0.00010010643196972742
0.00011210740926871327
0.00012476059400132915
0.00013797957369859548
0.00015166799962945855
0.00016572135486134877
0.0001800284272648434
0.00019447360511601683
0.00020894095650985303
0.00022332193201273921
0.00023752582102222304
0.00025148651018899965
0.0002651638714314859
0.00027853682806977493
0.0002915947114475846
0.000304335946208774
0.000316769758564156
0.00032892430052451177
0.00034085013410880606
0.00035262189299183825
0.0003643367536825096
0.0003761123980914073
0.00038808523851532325
0.00040040907644082845
0.0004132540794781661
0.00042680594848525425
0.00044126511162529395
0.00045684563811135455
0.0004737710904598495
0.0004922309259359723
0.0005117911838277798
0.000523188474468895
2.9800791499968603e-05
3.2377947610995327e-05
3.759190089859504e-05
4.3842695543697885e-05
5.1033568940467476e-05
5.9163040287931664e-05
6.822295547962174e-05
7.819050216632828e-05
8.902729014953245e-05
0.0001006793434986238
0.00011307760417897203
0.00012613894422318348
0.00013976764090284442
0.0001538572499500077
0.00016829280403527736
0.00018295352963881202
0.00019771639992098084
0.00021246114884600982
0.00022707668281982178
0.00024146758984278972
0.0002555590708801616
0.0002692980560901064
0.00028265123825124363
0.000295602211687376
0.00030814968257690615
0.00032030894384930746
0.00033211416313346523
0.000343621103175544
0.0003549080893152418
0.0003660758185834798
0.0003772462695396806
0.00038856147436389457
0.0004001824475841042
0.00041228836884464723
0.00042507597551344326
0.00043875904436509937
0.0004535676554197887
0.00046974450394333646
0.00048750257668571536
0.0005064480427288596
0.0005175368050238087
2.819649235967904e-05
3.0795280523669905e-05
3.609109509911916e-05
4.249167905418105e-05
4.989628123940684e-05
5.829809092633871e-05
6.768306854879051e-05
7.80219770110783e-05
8.92693789319319e-05
0.00010136349940917581
0.00011422661188017752
0.00012776597590478646
0.00014187535736175783
0.00015643713398102302
0.00017132503066019322
0.0001864075579756267
0.00020155230042967224
0.00021663104052660871
0.0002315253732895076
0.0002461320346490102
0.0002603668378730035
0.00027416664579956113
0.0002874894478376244
0.0003003135251515918
0.000312636936407889
0.0003244777237609106
0.00033587497173722953
0.00034688976437592585
0.0003576057682723063
0.00036812908444749546
0.0003785876406068745
0.00038913040639389267
0.0003999267035358506
0.00041116572661249425
0.0004230563077432725
0.0004358268233535406
0.00044972495863846443
0.00046501465632173066
0.0004819354563256671
0.0005001405801701414
0.0005108547703368521
2.636151677798251e-05
2.898663521001647e-05
3.437918190180124e-05
4.095417153109066e-05
4.860591630715397e-05
5.7321488300248233e-05
6.708031817206789e-05
7.784616282939614e-05
8.956590976823251e-05
0.00010216922850040315
0.00011556877738271331
0.00012966105251476225
0.00014432797096806295
0.00015943923827534375
0.00017485554069180035
0.00019043255202330132
0.0002060256979055565
0.00022149546636095134
0.0002367128520327342
0.000251564335588727
0.0002659558063641553
0.00027981505517332944
0.0002930928999138888
0.00030576342272926676
0.0003178238355886413
0.0003292944460361155
0.0003402187539805249
0.00035066355090681054
0.0003607188417694205
0.000370497502215851
0.00038013475996468663
0.0003897876871838422
0.0003996348544224724
0.00040987627118028904
0.000420733629270824
0.0004324507817802787
0.0004452941772763997
0.0004595506572100775
0.0004754889125589549
0.0004928162305307542
0.0005030823115876026
2.430155465342993e-05
2.695715532014415e-05
3.24605471545903e-05
3.923395744600996e-05
4.716579032292762e-05
5.623630471983453e-05
6.641796860826807e-05
7.766721129077723e-05
8.992287925015573e-05
0.00010310553542040881
0.00011711737079194074
0.00013184290109866892
0.00014715058100168914
0.00016289542684221167
0.00017892265137607063
0.00019507223718004797
0.00021118425065779094
0.00022710458256757876
0.00024269066603377427
0.0002578166655805761
0.0002723776928416575
0.0002862927562112347
0.0002995064771458957
0.0003119897646596419
0.00032373982446970775
0.0003347797945221968
0.0003451582235992369
0.00035494844053271307
0.0003642478835333735
0.0003731774032585969
0.0003818806637870432
0.00039052376127958184
0.00039929518566106083
0.000408406210731162
0.00041809171671152644
0.0004286113931574663
0.0004402510229927075
0.0004533213661240229
0.0004681222698648955
0.00048442204993788616
0.0004941585444768287
2.2030334237068775e-05
2.471908357807346e-05
3.0344952596096835e-05
3.733839727266743e-05
4.558100764033798e-05
5.504572474024979e-05
6.56979379834004e-05
7.748680525259725e-05
9.034312326549777e-05
0.00010417804914899612
0.00011888254691125599
0.00013432780689940206
0.00015036683931158072
0.0001668373606012431
0.00018356594569306095
0.00020037330594506017
0.00021708038726139393
0.0002335148716914796
0.0002495175639432185
0.0002649481654213285
0.0002796899786101242
0.0002936533020428157
0.0003067774367121901
0.00031903147993315745
0.00033041415030808955
0.0003409529644976644
0.0003507030445023152
0.00035974576844064306
0.00036818745409772065
0.00037615822702457674
0.0003838112196403822
0.0003913222399943638
0.0003988900143857514
0.0004067370617094573
0.00041511120998480674
0.0004242876676024341
0.0004345713656447487
0.00044629720187201597
0.00045979738952442873
0.0004749079827410073
0.00048402541832037407
1.9572236676385984e-05
2.2293953166363913e-05
2.8048955606540702e-05
3.527902921285899e-05
4.385826187901292e-05
5.375208970322969e-05
6.49191912256764e-05
7.730204435804791e-05
9.082387291148595e-05
0.00010538647256313428
0.00012086893080824448
0.00013712759256993097
0.00015399756686495188
0.0001712959192063662
0.00018882651514544275
0.0002063862754508248
0.00022377242585173098
0.0002407901790632122
0.0002572602214793971
0.0002730253996136296
0.00028795609992284655
0.0003019540534241197
0.0003149544460346006
0.00032692650921784894
0.00033787284566770147
0.0003478278724913589
0.0003568557607584455
0.00036504820333116064
0.0003725223559907676
0.00037941914263766826
0.00038590218116364716
0.0003921574479721376
0.0003983938031532913
0.00040484442123422617
0.00041176911308368546
0.0004194574477302245
0.000428232392112656
0.00043845219749131083
0.00045048164912104584
0.000464230758960464
0.000472632085023423
1.696506497738495e-05
1.9714846906366256e-05
2.5597224998126595e-05
3.3071913623436524e-05
4.2005227764382165e-05
5.235542393593669e-05
6.407551536203529e-05
7.710264272915821e-05
9.135361368776626e-05
0.00010672138670142241
0.00012307268219646753
0.00014024724519267755
0.00015805918114910833
0.0001763005629199044
0.00019474723487648526
0.00021316648826365112
0.00023132599113059212
0.00024900322288576467
0.0002659945718087826
0.000282123305849587
0.00029724582668961544
0.00031125582315357723
0.00032408627184879615
0.0003357094466215421
0.00034613533998387175
0.0003554089694270892
0.0003636071071181871
0.00037083492214568957
0.0003772229485865635
0.0003829247335814957
0.0003881153917394459
0.00039299126082182554
0.0003977707397375356
0.0004026963636134166
0.00040803808060554486
0.0004140976512614831
0.000421213836724111
0.0004297662810353537
0.00044015133012910413
0.00045235840647691374
0.0004599400624085597
1.4262717582144684e-05
1.7028483186503985e-05
2.3023560735083775e-05
3.073755267929967e-05
4.002944229495742e-05
5.0851338812192256e-05
6.31525749776977e-05
7.686733903451418e-05
9.190814032514548e-05
0.0001081603130273425
0.00012547795395832266
0.00014368213884186808
0.00016256198008573745
0.00018187881319758117
0.00020137341630627875
0.0002207757280748472
0.00023981625018326566
0.00025823801939282235
0.0002758079882413909
0.0002923267667978804
0.0003076359189857239
0.00032162238751365043
0.00033422001710403025
0.0003454084956414875
0.00035521026409896753
0.0003636861516555543
0.00037093039859616037
0.0003770658071718534
0.00038223949992335416
0.0003866197564769725
0.0003903941579210427
0.0003937692465088374
0.00039697175291329126
0.00040025143382755424
0.00040388548325177994
0.00040818443547619934
0.0004134992870684158
0.00042022772002585156
0.000428795315071777
0.00043927526248833606
0.00044592899262164157
1.1537316639116917e-05
1.42967416838907e-05
2.037130818235384e-05
2.830025033611412e-05
3.7936623890300205e-05
4.922834739384658e-05
6.212428583424472e-05
7.655950678592977e-05
9.244577447880421e-05
0.00010966300179175401
0.00012805276246299658
0.00014741495799919861
0.00016750847132826797
0.00018805620359717206
0.0002087543243530252
0.00022928502925399552
0.0002493315292806212
0.00026859369467541894
0.00028680267539953194
0.0003037329977465864
0.0003192110952421976
0.0003331197697377535
0.0003453986738593298
0.00035604139206779324
0.00036509004182956806
0.0003726284018883513
0.0003787746377175787
0.00038367448185084755
0.00038749551143853173
0.00039042305616215434
0.000392657953730444
0.0003944162857230271
0.0003959311485962058
0.0003974563953180853
0.00039927235361274406
0.000401693458728946
0.0004050776692785731
0.00040983588389295866
0.000416418992017256
0.00042498735778517723
0.0004306030176922003
8.880039723260456e-06
1.159699858088585e-05
1.7692870359521267e-05
2.578678431667552e-05
3.572860110685665e-05
4.7464759588888904e-05
6.094852127505659e-05
7.612201833857956e-05
9.290183475059182e-05
0.00011116608114852224
0.00013074442413298394
0.00015141253331066204
0.00017289211777330555
0.00019485716113424833
0.00021694617023138943
0.00023877937506471735
0.0002599790143067204
0.00028019031973916737
0.0002991006962960263
0.0003164549784820965
0.00033206529849620067
0.0003458150942447642
0.00035765759486690985
0.0003676098459051519
0.000375743757372433
0.00038217570238743755
0.00038705608229075596
0.00039056004793530246
0.000392880046480193
0.00039422078201538596
0.0003947966822844294
0.00039483195111055566
0.0003945630939683641
0.0003942438184976063
0.0003941522107888565
0.0003946001822672607
0.00039594533432179993
0.00039860419757011196
0.00040304863711870543
0.0004095277950885141
0.0004139968030271421
6.400105743437855e-06
9.020592241609551e-06
1.5047717231497724e-05
2.3225129107943797e-05
3.3401434484996715e-05
4.5525106602317694e-05
5.956234180583308e-05
7.547168475971213e-05
9.318276346986113e-05
0.00011257744293195143
0.00013347494476765724
0.00015562302361257335
0.00017869698121040345
0.00020230753467556919
0.00022601743046191984
0.0002493652324959001
0.0002718934804678676
0.0002931775068781125
0.00031285113569418316
0.0003306260720238245
0.0003463030820997506
0.00035977453972250897
0.0003710192951000025
0.0003800917811208354
0.0003871077260471572
0.000392228780294389
0.0003956479893253126
0.00039757749195348406
0.00039823927107783704
0.0003978592868501034
0.0003966650132933245
0.00039488618149792476
0.0003927584730966887
0.00039052989776776966
0.0003884696924654113
0.0003868796666605264
0.0003861080380579508
0.0003865661048110817
0.00038873503743960537
0.00039296236914125766
0.0003961836790529141
4.2179063599682465e-06
6.667786230381406e-06
1.2502002507993013e-05
2.064427348881688e-05
3.0941995728863925e-05
4.335585627447204e-05
5.787742578035793e-05
7.449432534722267e-05
9.316091582329416e-05
0.00011377122963046444
0.00013613705063737617
0.00015997406924217253
0.0001848990090669956
0.00021043962198011057
0.0002360575804428674
0.00026118215681323405
0.0002852502141717108
0.00030774674602216604
0.00032823990869602286
0.0003464058422950276
0.0003620406447306634
0.0003750595808352652
0.00038548556679680494
0.0003934304702836556
0.0003990729323679696
0.0004026361947463574
0.00040436840194415456
0.00040452696395913717
0.00040336764134958213
0.00040113839775311944
0.00039807762239824356
0.0003944162311670259
0.0003903830929774514
0.00038621338126651375
0.0003821595705208854
0.00037850494276345996
0.0003755796879170648
0.00037377823642015967
0.00037357414877104745
0.00037539113653193814
0.0003772687465204963
2.4740984147246737e-06
4.650178149871665e-06
1.0127628942947661e-05
1.8068087112260727e-05
2.8326021808485844e-05
4.0887727980657225e-05
5.5784062161625565e-05
7.304897493687564e-05
9.267820010714062e-05
0.0001145909751287415
0.00013859764522673867
0.00016437788463947382
0.00019147420818133831
0.00021930436717474455
0.0002471933066410786
0.00027442176793267904
0.00030028444580506745
0.000324148352002376
0.00034550149522054324
0.0003639845881479697
0.00037940245837667183
0.0003917162653302854
0.0004010210162237621
0.0004075145098805699
0.00041146377811778845
0.000413173863001594
0.0004129620411774669
0.0004111389724899158
0.00040799687410729196
0.00040380414950485344
0.0003988054049625384
0.0003932258651907323
0.0003872793024876613
0.0003811789065596999
0.00037515076421805975
0.00036945002545682914
0.0003643796781749785
0.0003603125833727253
0.0003577027408751221
0.0003570379145433786
0.00035748002467542693
2.6187221094986647e-05
3.8842451478253605e-05
7.202134069034805e-05
0.00014191331261494966
0.00016989917394203197
0.00022984984218041743
0.0002602335506754803
0.0003173713999432743
0.0003424870524712748
0.0003829179127736208
0.0003977077523012003
0.00040887500626502117
0.00041662388598459203
0.00042126932820358144
0.000423189470193701
0.0004227847638366002
0.00038334079959000106
0.0003754950149266449
0.00034700451347721885
0.00034219217083454243
0.00033829202576025745
1.3401800950522473e-06
3.2739633238580227e-06
8.363142489435935e-06
1.603442442299885e-05
5.408823302108071e-05
9.269275723965398e-05
0.000116054440146905
0.00019945416299643973
0.00028969921973678056
0.00036446003989364914
0.0004204469498104004
0.0004165386316370747
0.00041138253836321004
0.00040525869636084564
0.00039840780543332717
0.00039103897150164906
0.00036769250723320485
0.0003601519146706822
0.00035314155774930693
0.00033922237049011116
8.254395881298875e-07
2.457589407588552e-06
7.074696703097852e-06
1.4355392310062254e-05
2.419917218177153e-05
3.665657390186163e-05
5.185829324657136e-05
6.995428270321946e-05
9.104792718209915e-05
0.00011513219751286936
0.00014203181341360832
0.0001713605987241917
0.00020250418839138238
0.0002346371978935908
0.00026677826828546406
0.0002978777761236812
0.0003269235020552376
0.00035304351099610333
0.00037558579942122806
0.0003941607115591185
0.0004086429409287139
0.00041913934291126174
0.000425935046522214
0.0004294315110462279
0.0004300879076592263
0.0004283729437201927
0.00042473031785234645
0.00041955766386506923
0.0004131971188086046