# vtk DataFile Version 2.0
time_10.vtk
ASCII
DATASET UNSTRUCTURED_GRID
POINTS   4141  float 
6.96182437362073e-05          -9.96446003113362e-18         0.0                           
0.24999999999999906           6.642818293139743e-05         0.0                           
0.5000645756369763            -2.9286767037520336e-18       0.0                           
0.75                          6.028427272550045e-05         0.0                           
1.000057821865277             -6.569794691139851e-18        0.0                           
1.25                          5.2219027897735685e-05        0.0                           
1.5000490669606634            -7.335131239578357e-17        0.0                           
1.75                          4.204844593963254e-05         0.0                           
2.0000381831871534            -2.775824852715326e-17        0.0                           
2.25                          2.975968398842893e-05         0.0                           
2.5000252157796377            -1.1295548610095163e-17       0.0                           
2.7500000000000013            1.5522408108250598e-05        0.0                           
3.000010415952609             -6.365002479285621e-18        0.0                           
3.25                          6.877689203946651e-18         0.0                           
3.4999938425055497            6.437269080297455e-17         0.0                           
3.75                          -1.8479017589469486e-05       0.0                           
3.999975229729099             -1.2894960937273812e-16       0.0                           
4.25                          -3.767533942201705e-05        0.0                           
4.499955714896543             -1.008612555061567e-16        0.0                           
4.75                          -5.7802897878902345e-05       0.0                           
4.999935293017559             -2.0057344322802057e-17       0.0                           
5.25                          -7.88072431375885e-05         0.0                           
5.499913990416002             -3.7857491057248736e-17       0.0                           
5.75                          -0.00010074887931956217       0.0                           
5.999891696139829             1.0335051488161282e-17        0.0                           
6.25                          -0.00012384366757295392       0.0                           
6.4998681427221845            -9.621842595472907e-16        0.0                           
6.75                          6.937514450448384e-05         0.0                           
7.000067863503389             4.442029385737862e-06         0.0                           
7.250004886128355             6.4339875214506e-05           0.0                           
7.5000622976976405            5.843536369748548e-06         0.0                           
7.750006352114032             5.758886969799395e-05         0.0                           
8.000054902263258             7.4152647236431945e-06        0.0                           
8.250007963888795             4.883009301879254e-05         0.0                           
8.500045437061194             9.080007268793893e-06         0.0                           
8.750009641487077             3.7934387995268685e-05        0.0                           
9.000033829904526             1.0756905922381384e-05        0.0                           
9.250011305434358             2.4942524232805182e-05        0.0                           
9.50002017644281              1.2371205721927538e-05        0.0                           
9.750012883069548             1.0049037102164741e-05        0.0                           
10.000004686531646            1.3852844365539946e-05        0.0                           
1.442618229673564e-05         0.29999330985398265           0.0                           
0.2499873177970185            0.30001541893103273           0.0                           
0.5000158446358528            0.2999748886295284            0.0                           
0.7499684926849439            0.3000166730206304            0.0                           
1.0000170763017653            0.2999553742646585            0.0                           
1.249948661681129             0.3000178669274561            0.0                           
1.5000182582573796            0.2999349451572598            0.0                           
1.7499279426741383            0.3000190453268701            0.0                           
2.000019446624005             0.29991363909343              0.0                           
2.2499063279945584            0.3000202793613038            0.0                           
2.5000207166830255            0.29989134703080744           0.0                           
2.7498836552245574            0.30002164729667563           0.0                           
3.000022145708519             0.29986780073112124           0.0                           
3.249859606167864             0.3000232198453911            0.0                           
3.5000080310185466            0.30006714220263764           0.0                           
3.7500654765603314            0.3000097584643848            0.0                           
4.000010696017913             0.30006159493454265           0.0                           
4.250059351140361             0.3000126965358174            0.0                           
4.500013748783695             0.3000542018404419            0.0                           
4.750051280112099             0.30001592787027104           0.0                           
5.000017042488724             0.3000447178875293            0.0                           
5.2500410739224765            0.30001929154380474           0.0                           
5.500020414344617             0.3000330668019073            0.0                           
5.750028711728508             0.3000226296762001            0.0                           
6.000023712793692             0.300019328621626             0.0                           
6.250014313140036             0.3000258128644627            0.0                           
6.50002683037666              0.30000364363966764           0.0                           
6.749998025280932             0.3000288711217446            0.0                           
7.000029862504862             0.29998627270399264           0.0                           
7.249980150162557             0.300031676593211             0.0                           
7.5000325250691215            0.29996748606639206           0.0                           
7.749960974035847             0.3000341597414016            0.0                           
8.000034954659172             0.29994763350629394           0.0                           
8.249940815326058             0.300036521509883             0.0                           
8.500037303428881             0.2999268943161693            0.0                           
8.749919790014477             0.3000388919344164            0.0                           
9.00003971028719              0.29990527460734645           0.0                           
9.249897849498689             0.3000414250549376            0.0                           
9.500042333111727             0.29988261398925126           0.0                           
9.749874777570243             0.3000442774976782            0.0                           
10.000045323248024            0.29985858958107575           0.0                           
6.742822257736938e-05         0.6000120060651737            0.0                           
0.2500132651254981            0.6000642860653385            0.0                           
0.500062452527388             0.6000160135634777            0.0                           
0.7500174902902349            0.6000581842618989            0.0                           
1.0000557245229251            0.600020609696189             0.0                           
1.2500222348551169            0.600050106774531             0.0                           
1.5000469364159332            0.6000255701422678            0.0                           
1.7500272618144983            0.6000398580486815            0.0                           
2.00003595036077              0.6000306488547521            0.0                           
2.250032327856526             0.6000274124384454            0.0                           
2.5000227922947134            0.6000356216833488            0.0                           
2.750037226225958             0.6000128803576623            0.0                           
3.000007602065493             0.600040344790483             0.0                           
3.2500418635736077            0.5999964656553692            0.0                           
3.4999906397736615            0.6000447968999585            0.0                           
3.7500461856888494            0.5999785157733287            0.0                           
3.9999722352423492            0.6000488008763968            0.0                           
4.250050045295194             0.5999592967488518            0.0                           
4.49995266055947              0.6000524505869416            0.0                           
4.7500536261144495            0.5999390910436532            0.0                           
4.999932165753994             0.6000559615662375            0.0                           
5.250057138267457             0.5999180379548738            0.0                           
5.49991083038756              0.6000595541357465            0.0                           
5.750060811596999             0.5998960985576335            0.0                           
5.999888555932426             0.6000634706513865            0.0                           
6.250064889290202             0.5998730556348181            0.0                           
[...]
POINT_DATA  4141
SCALARS Con float 1
LOOKUP_TABLE default
0.0005192459742350386
0.0005815707952759881
0.0007032885043527237
0.0008474913484687586
0.0010126587249080184
0.0011995974479957051
0.0014089600343937755
0.0016410361055448509
0.0018957149702208851
0.0021724743329887297
0.002470384056026299
0.0027881228578144606
0.003124004897949594
0.0034760108154703877
0.003841814010215126
0.004218786085706059
0.004603972032388584
0.004994056095098794
0.005386299589010687
0.0057885164833286805
0.006266886616503876
0.006749677355121306
0.007167805974148639
0.007564822774828187
0.007966091491912061
0.00836984974184916
0.008776217747418985
0.009185820022613471
0.009600071403645632
0.010021010542379602
0.010451213712876077
0.010893723373965693
0.011351989610055416
0.01182981642924921
0.012331309129570728
0.01286081986759277
0.013422884607899331
0.014022073443818946
0.014661666412508928
0.015324932588352255
0.015707904104096296
0.0005283259555533438
0.0005922365031388147
0.0007165385054782527
0.0008635921596743867
0.0010318800862245132
0.0012221583035029436
0.0014350259721641217
0.001670715284473942
0.0019290572350083616
0.0022094735086522345
0.0025109843089718927
0.0028322308731499094
0.003171511728721609
0.003526832258750852
0.0038959701290668825
0.0042765748609061805
0.00466635519791091
0.005063721168567172
0.005469203105680993
0.005896822153080029
0.006335868287954958
0.0067705314024708385
0.007193091309962768
0.007608626519374183
0.008017294682848659
0.008424872752021053
0.008833109332221414
0.009243710005277619
0.009658591786811091
0.010080086453124639
0.010510959838366425
0.010954394564120487
0.011413955089787861
0.011893545372436282
0.012397361722236409
0.012929840859836344
0.013495597442011141
0.014099275570999058
0.014744197588048135
0.015413881844202913
0.015801017950475216
0.000522545204739549
0.0005863226194061785
0.0007107176383500766
0.0008582126479096767
0.0010272631035508678
0.0012186184899494702
0.0014328642231614163
0.0016702170524182257
0.001930493007177213
0.00221310274601858
0.002517064810071924
0.0028410376328714686
0.003183373243237317
0.0035421997614102666
0.003915550913843431
0.0043015808489827514
0.004698985775979046
0.005107545243463682
0.005530116143475887
0.005953123066098555
0.006353162299289044
0.0067558906605868115
0.007182485239518294
0.007606692593404033
0.008023975862830518
0.008436159352982678
0.008846329162696126
0.009256961734319894
0.00967053078272324
0.010089710050690022
0.010517492450332613
0.010957226230197074
0.011412612824870346
0.011887683367376051
0.012386762777764033
0.012914424642032503
0.013475432707786566
0.01407459132774469
0.014715402588613044
0.01538140254292799
0.015766464773971502
0.0005124793385238125
0.0005761945517903947
0.0007007803124683214
0.0008489905207464563
0.0010192923502593606
0.0012124176194119897
0.0014289276270146834
0.0016690104398785943
0.0019324519420002664
0.002218634457529502
0.002526554391669632
0.002854860348679673
0.0032019148748897355
0.003565884810473632
0.003944864895475613
0.0043370353663153
0.004740740118498136
0.005154381005841534
0.005572218438247907
0.005985577507743051
0.006394470412109196
0.006802659531237705
0.007214982125556214
0.0076333657809650015
0.008049853431470123
0.008462397984309582
0.008871962033257793
0.009280628803293894
0.009690872185949155
0.010105501680743024
0.010527670561309044
0.010960891129227272
0.01140903238401834
0.011876302374951745
0.012367218304933836
0.012886566145820693
0.01343934475668427
0.014030616706758571
0.014664158677851995
0.015323927020224936
0.015705940591419974
0.0004982857478517848
0.0005619093387595589
0.0006867858355111955
0.000836020726236242
0.0010080932511836516
0.0012037103606913834
0.0014233961922083716
0.0016672939538351335
0.0019351390838211573
0.0022262593760105963
0.0025395931993483136
0.002873726204958745
0.0032269464334864434
0.003597314058582574
0.003982732122995027
0.004380966024511405
0.0047895258010870944
0.005204865310852061
0.00562248571006471
0.006038736862073486
0.006451728241953889
0.006863147996059791
0.00727524630545789
0.007687661013027342
0.008099251385943423
0.008507964779645192
0.00891365436167785
0.009317588389618669
0.009721909957030622
0.010129344315195792
0.010543094241992061
0.010966793859989008
0.011404481060910021
0.011860570639252438
0.012339822515254093
0.012847302080621563
0.013388325379440688
0.013968310881479052
0.014591442532722432
0.015242316285501089
0.015619991199929378
0.00047987947841782077
0.0005434018466560196
0.0006686788984218966
0.0008192600584023879
0.0009936350617224627
0.0011924752454943002
0.0014162535828099653
0.001665050693412705
0.0019385289890599792
0.0022359319886414617
0.00255609946046025
0.0028974973640871005
0.003258259553959362
0.003636232941063738
0.004029006230361301
0.0044338922902495475
0.0048477918079894945
0.005267200936338543
0.005688551484655606
0.006108825584012535
0.0065265110147697475
0.006941353263654661
0.007353662082696156
0.007763534665827523
0.008170269817714921
0.008573317766031362
0.00897263263159888
0.009369184528768686
0.009764849226371424
0.010162232536166571
0.010564541845719668
0.010975510082229517
0.011399346041471336
0.011840695813681306
0.012304606122121241
0.01279648383356742
0.013322042536313668
0.013887158219621137
0.014496555099655488
0.015135654012510873
0.015507533327194355
0.00045720145160035023
0.000520616467917259
0.0006464155310855719
0.0007986770005382713
0.0009758979827747254
0.0011787025566271328
0.0014074982971707167
0.0016622861055002407
0.0019426339674158144
0.002247673583440582
0.002576110442046647
0.002926245884265124
0.003296007918049537
0.0036829838626935446
0.004084445397699827
0.004497356162111017
0.00491841009390688
0.0053441594843553165
0.0057712943372537516
0.00619706747844048
0.006619546825138152
0.0070376613397783285
0.0074508831679569905
0.007858835221644083
0.00826121744485973
0.008657869626210455
0.009049137898666095
0.009436057054160925
0.00982045278971341
0.010204898005468751
0.010592637523908927
0.010987520143157105
0.011393945687686887
0.011816822215449836
0.012261527649140203
0.01273387031772582
0.013240038872856609
0.01378646437464653
0.01437852765046259
0.015002664686454245
0.015367133454711447
0.0004302375809346891
0.0004935398619182655
0.000619985757454779
0.0007742678009884019
0.0009548848372248431
0.001162401539300237
0.001397147107352728
0.001659028332326244
0.0019475015440364024
0.0022615651242916743
0.002599763798569715
0.0029602041722723376
0.0033405801715161807
0.0037382062074765893
0.004150057044293574
0.004572825176296591
0.005003015270668339
0.005437103386902375
0.005871765724009696
0.006304114450402867
0.006731878022851934
0.007153424168674914
0.007567662126950753
0.00797391129077863
0.008371819207894364
0.008761427441595871
0.00914328274495394
0.00951857878330096
0.009889226178462291
0.010257868742446347
0.010627854511392898
0.01100319267539945
0.011388511054186746
0.011789018313251631
0.012210469733483635
0.012659132879159051
0.01314174412577821
0.013665379316463305
0.014236189628760323
0.014841840382308666
0.015197088912571217
0.0003990549845481751
0.0004622310277446347
0.0005894376775492542
0.0007460728948022741
0.0009306297490490616
0.0011436015313359333
0.001385228758177744
0.0016553143948225587
0.00195319218042486
0.0022777133944524436
0.0026272446932479204
0.002999678236659723
0.003392455444976219
0.0038026059011332237
0.004226805337164979
0.004661459698285643
0.005102825126918821
0.005547167795266204
0.005990950062254734
0.006431013517779107
0.00686471193823282
0.007289972813156621
0.007705289856525818
0.008109685387931541
0.008502694524320769
0.008884385933947674
0.009255426146636627
0.00961714632817131
0.00997159500965623
0.010321557196644569
0.010670547539563476
0.011022787246190026
0.01138317604616104
0.011757265073365308
0.012151232084903934
0.012571857045873392
0.01302648962696752
0.013522933360642447
0.014068221221681632
0.014651474254629482
0.014995462961159724
0.00036384257758774924
0.0004268571124319357
0.000554903703945598
0.0007141931623480941
0.0009032040402121943
0.0011223474117191491
0.0013717690505740216
0.0016511649588546392
0.0019597432899841963
0.0022962027845367023
0.0026587223381596753
0.0030449650874053856
0.0034521007719726126
0.003876850202747582
0.004315555856907036
0.00476428258624592
0.005218949959256739
0.005675491560695918
0.006130027650136182
0.006579028391442399
0.0070194454920907276
0.00744879742458288
0.007865211410456435
0.008267439384147339
0.008654868274294911
0.009027541439098756
0.009386190311949842
0.009732270310910613
0.01006798779638652
0.010396312735622361
0.010720976159743613
0.011046458124999239
0.011377972002871554
0.011721450010907226
0.012083531673699952
0.012471553950422216
0.012893535103912852
0.013358078914859762
0.013873203524440015
0.014429721471929372
0.014760150579255614
0.0003249571047311646
0.0003877329833183578
0.0005166283188766058
0.0006788049263943254
0.0008727181055518497
0.0010986883358872135
0.0013567668604388464
0.0016465483832756775
0.0019671222775420705
0.0023170384527499157
0.0026942849988643228
0.0030962834068688503
0.0035199073125117618
0.003961529895456067
0.004417103604077159
0.004882273454792615
0.005352521198312688
0.005823332283181948
0.0062903717780084635
0.006749652102592116
0.007197676186557539
0.0076315462050326145
0.008049036916157467
0.00844864078131082
0.008829596075418184
0.009191906829887204
0.009536359815353406
0.009864537613704804
0.010178826263785972
0.010482415574968481
0.010779293576705613
0.011074238350679668
0.011372811478353177
0.0116813563296637
0.012007002502265201
0.012357675070930265
0.01274210076831916
0.013169740085539934
0.013649685466521696
0.014174680978371467
0.014488967990491776
0.0002829730529410851
0.0003453632299952448
0.0004749955974300916
0.0006401720180591076
0.0008393176696160105
0.0010726584160147532
0.0013401601243696716
0.0016413336464309591
0.0019751688542313994
0.0023400814500029806
0.0027338727695689546
0.00315371115010887
0.0035961431701571124
0.004057141259430283
0.004532191207179742
0.0050164191280786105
0.005504752557314106
0.00599210527036196
0.006473571281720057
0.0069446116597137696
0.007401219360541772
0.007840051949204885
0.008258528499291833
0.008654893145535938
0.009028251358953649
0.009378586414559631
0.009706762254330106
0.010014517269859734
0.010304452445187684
0.010580016875483234
0.01084549418834285
0.011105993900339407
0.01136745132183224
0.011636638671872087
0.011921188104762254
0.012229624865185428
0.012571402510363785
0.012956871820645362
0.013396266980793905
0.013884501307998136
0.014179770226856125
0.0002387330437001861
0.0003004834856830082
0.00043055377588796664
0.0005986525389850071
0.0008031724529487861
0.0010442476884879317
0.001321780436106034
0.0016352309642038748
0.0019835253005035347
0.0023649736715228684
0.0027772037847852878
0.0032171210432216193
0.003680907065052529
0.00416406496481673
0.0046615154168738356
0.0051677419058153195
0.005676977556110552
0.0061834203757660505
0.006681459789900487
0.007165896088583407
0.00763213604057835
0.008076352495576315
0.008495601640653744
0.008887897727277458
0.009252249784208147
0.009588667785821363
0.009898146921370643
0.010182638323622182
0.010445014236878646
0.010689034523842775
0.010919320926034641
0.011141344389083428
0.011361429734485907
0.01158678019795638
0.011825522236876653
0.012086768234877322
0.012380688610627359
0.012718527609674334
0.013111698678171779
0.013557511050990394
0.013830597969482761
0.000193393261984643
0.0002540959738008475
0.00038403285649145526
0.0005546973412770028
0.0007644552018564368
0.0010133621377920743
0.001301295405736506
0.0016277191577370616
0.0019915532168536467
0.0023910501793478565
0.002823689911894897
0.0032861083372646015
0.0037740763380964717
0.004282540206800756
0.004805728849634024
0.005337325267543832
0.005870691911053415
0.006399132536615531
0.006916168570792617
0.007415806532768135
0.007892775324534898
0.008342717333117968
0.008762324422738128
0.00914941728525323
0.009502973143694967
0.009823111412877804
0.010111049573819253
0.010369042244831
0.010600315857666538
0.010809010012582485
0.011000134609549097
0.011179550082367765
0.011353975700350624
0.011531028881511382
0.011719295916851532
0.011928431402809202
0.012169276612283411
0.012453934505294658
0.012794996681146921
0.013192373524732527
0.01343985421222326
0.0001484544468064646
0.0002074914001347942
0.00033634960973819104
0.0005088369195243896
0.0007233100194459776
0.0009797731412231779
0.001278139752106046
0.001617960601995418
0.0019982369438140313
0.002417238309271362
0.002872340689876349
0.003359909601541674
0.003875249961528453
0.004412638759057141
0.004965447811706805
0.0055263533472252905
0.0060876181343437015
0.006641422231185171
0.007180212088003755
0.007697036031772052
0.008185837218514224
0.008641682423264392
0.009060914820874493
0.009441229261788408
0.009781677629294473
0.010082618629923254
0.01034562996729322
0.010573402059341121
0.010769631042452328
0.010938926526000488
0.011086746094758298
0.011219365541260573
0.011343890469094564
0.011468312481755037
0.011601610677242701
0.01175389628780606
0.011936590879732702
0.01216257420139466
0.012445570651366157
0.012788263427029354
0.013006508383238642
0.00010576491202399602
0.0001622458472621597
0.0002885929727830243
0.00046165466452288565
0.0006798116225468561
0.0009430604155241052
0.0012514397144065357
0.0016047076038348805
0.002002076798069104
0.0024419460422147998
0.0029216577062553166
0.0034373153501821396
0.003983691316735931
0.0045542472777145215
0.005141278794945033
0.005736180228064106
0.006329809951084729
0.006912921889375544
0.007476619857351645
0.00801278881559195
0.008514462203296555
0.008976095626564182
0.009393732086045596
0.009765059114283416
0.010089371444408649
0.010367461821956796
0.01060146717675639
0.010794697620793997
0.010951472941196748
0.011076986666564322
0.011177212438860875
0.01125886245684053
0.011329403603473714
0.011397133786971306
0.011471319153626005
0.01156239187368474
0.011682202839943126
0.01184427355312604
0.012063360598524382
0.012345059818859189
0.012530325987599709
6.74750861236981e-05
0.00012017738703398033
0.00024198345634348484
0.0004137470284456825
0.000633923924274058
0.0009025583793736307
0.0012199387249231693
0.0015862083087636307
0.00200098029762553
0.002462947218798293
0.0029695262291668167
0.0035165833609535116
0.004098279114353976
0.0047070692151988044
0.005333879011792345
0.0059684481172661815
0.006599817497037268
0.007216908929804411
0.007809132189510376
0.00836695180181417
0.008882353894960837
0.00934917204820533
0.009763254705723397
0.01012248020464306
0.010426644519512708
0.010677258650860997
0.010877296958366022
0.011030935806612763
0.01114331542059862
0.011220349878440715
0.011268601429377698
0.011295228377820765
0.011308010111212439
0.011315449556055346
0.011326952053142644
0.01135308015482518
0.011405888038102524
0.011499303527199566
0.011648991690383843
0.011863543925168559
0.01201209509656944
3.592526866734998e-05
8.324463896620071e-05
0.00019779887324896655
0.0003656897047356842
0.0005854759877744427
0.0008573125149642021
0.001181935636805184
0.0015601279537968292
0.001992168131672931
0.002477278883013385
0.0030131169325203805
0.0035953638351352117
0.004217477989666369
0.004870660888643099
0.0055440700629189885
0.0062252783025913885
0.006900940413755077
0.0075575922188128855
0.008182482418569873
0.008764333065642024
0.009293939573346397
0.009764553508661527
0.010172029998659465
0.010514758979201162
0.010793426635580063
0.011010668055053888
0.011170673747261167
0.011278805446816727
0.011341263655924812
0.01136483524521447
0.011356736546219218
0.011324557458440587
0.011276305533864488
0.011220545711470848
0.011166630499340665
0.01112501774143882
0.011107674174822982
0.011128575189589722
0.011203913910330232
0.011345608820824176
0.011453918694586245
1.6332936852559244e-05
5.3374043990580324e-05
0.0001573284334588563
0.0003180351262661286
0.0005341270393450899
0.000806049505502362
0.0011352613054404815
0.001523518628572447
0.0019721279123256566
0.002481178655625113
0.003048819491978062
0.003670653452914174
0.004339344449843471
0.005044519896440028
0.005773028968413169
0.006509565779819222
0.007237603875291966
0.007940526063733057
0.00860279242640644
0.009210981096540474
0.009754566268679266
0.010226354155921035
0.010622565159355422
0.010942608727645645
0.011188636940583908
0.011364976736156248
0.011477535803330883
0.011533257578068046
0.0115396768062422
0.011504603594279562
0.01143594528671696
0.011341662958863819
0.011229853096850435
0.011108942684481555
0.010987987943511334
0.010877068202264637
0.010787773105401877
0.010733737330959295
0.010731097869173034
0.010794364981002908
0.010859071893516578
5.400509126966849e-06
3.2332849286043816e-05
0.00012180211049619142
0.0002711962705267844
0.00047939521568337294
0.0007473323735390083
0.0010775016367999318
0.001473067098857917
0.001936854262427749
0.0024703035329070597
0.0030724455550210695
0.003739007499073853
0.004461785866937416
0.005228429048499375
0.006022739303681849
0.00682552982325036
0.007615963638729224
0.008373193094105395
0.009078040780388996
0.009714452755690897
0.010270510210683098
0.010738893388471721
0.011116807185845635
0.01140547410685328
0.011609350099156267
0.01173522862845531
0.011791371598994434
0.011786765996576593
0.011730560456842275
0.011631700506264518
0.01149875569189239
0.0113399189430755
0.011163154243021993
0.010976471680622272
0.010788315090890616
0.010608055523529754
0.010446583595598025
0.01031701259234317
0.010235045326859905
0.010217284160185773
0.010235055941638845
0.0004337647876384765
0.0006965761051109944
0.0014296507005664765
0.00311125782734651
0.0038287081622512737
0.005449543423414436
0.006317713626630818
0.008050592840857528
0.008863188855385852
0.010266543060662445
0.010825932106493545
0.011279643062805
0.01162692225197338
0.01187186749048205
0.01202217081901591
0.012087807775954371
0.011070335416054365
0.010823155366603204
0.00990436357463686
0.009749470546920198
0.009629253021587257
1.9937725382929086e-06
2.2235085911606357e-05
9.712587827262812e-05
0.00023450627412954756
0.0010268688165850296
0.0019097070718115698
0.002470199338101705
0.004613139371497763
0.00719346901054569
0.009608039150605851
0.01207986014290749
0.012009582993388508
0.011887759512647693
0.01172433707459678
0.011528310514892216
0.011307807629422897
0.010573770171770138
0.010330518525122961
0.010103292062960633
0.009656321611407852
6.703703496964401e-06
1.9203812159594e-05
7.990497764609188e-05
0.00020471509087749317
0.0003928012377410336
0.0006462821039015264
0.0009700462197122268
0.0013704908650482223
0.0018540105219346376
0.0024253663831263652
0.0030859829309327347
0.003832343127525413
0.004654740463538329
0.0055367010483226885
0.006455352664353039
0.0073828674835219365
0.008288860458744097
0.009143358226991328
0.009919773650209709
0.010597309695726451
0.011162385346835705
0.01160894737270941
0.01193779948692827
0.012155255786847318
0.012271482411910848
0.012298848057134344
0.012250507968142463
0.012139337689198882
0.011977243771030082
0.01177481954101117
0.011541285173065477
0.01128464648306171
0.011012015879968393
0.010730056021908286
0.010445526173663016
0.010165927593878726
0.009900267584713242
0.009659940941953014
0.00945979080894868
0.00931812257747082
0.009263251438799809
1.4847292175909191e-05
1.942625462917646e-05
6.720903874933481e-05
0.00018021987690301598
0.00035767721826973745
0.0006021098936486935
0.0009194657247979201
0.0013176379501267307
0.0018047779492074468
0.0023874135605926176
0.0030684277639503347
0.0038450745780577275
0.004707354945751782
0.0056371672672078845
0.006608627264031668
0.007589768692843951
0.008545504624433108
0.009441349373404255
0.010247136959861777
0.010939955906680213
0.011505767588694992
0.011939567403639682
0.012244316397444981
0.012429091759811836
0.012506949308022406
0.012492902536774259
0.012402274248474673
0.012249528357015153
0.012047577965287198
0.011807500772446433
0.011538568456696832
0.011248500563176354
0.010943872551623756
0.010630632299707383
0.010314703110121518
0.010002676225310578
0.009702592206091104
0.009424905631567823