# vtk DataFile Version 2.0
time_10.vtk
ASCII
DATASET UNSTRUCTURED_GRID
POINTS   4141  float 
8.440941870483691e-05         -1.710729326601719e-17        0.0                           
0.2500000000000004            8.03081070163473e-05          0.0                           
0.5000779638774339            -4.201824063516758e-17        0.0                           
0.75                          7.26047515410902e-05          0.0                           
1.0000695621657791            -4.62129342464022e-17         0.0                           
1.2500000000000002            6.269854989157515e-05         0.0                           
1.500058863792991             -3.5501759937446635e-17       0.0                           
1.75                          5.03727025494195e-05          0.0                           
2.000045717521862             -8.93714041306462e-18         0.0                           
2.25                          3.5609026092444405e-05        0.0                           
2.5000301716134605            1.0093606959184894e-17        0.0                           
2.75                          1.859400643283173e-05         0.0                           
3.000012498265398             7.815954371834045e-17         0.0                           
3.25                          1.8095564402736748e-17        0.0                           
3.499992807423625             9.41262587268194e-17          0.0                           
3.75                          -2.16804884648437e-05         0.0                           
3.999970909901109             8.868263275713428e-17         0.0                           
4.25                          -4.42891528301268e-05         0.0                           
4.499947928082914             -5.1768140903901795e-17       0.0                           
4.750000000000001             -6.798382027000985e-05        0.0                           
4.999923891656041             -2.455064974948754e-16        0.0                           
5.25                          -9.269674535778731e-05        0.0                           
5.49989883215547              -2.1273256593615796e-16       0.0                           
5.75                          -0.00011849875323443823       0.0                           
5.999872620742209             -7.2907186795096e-18          0.0                           
6.25                          -0.00014563793736862055       0.0                           
6.499844951154056             5.928225878642962e-16         0.0                           
6.75                          8.413367026984648e-05         0.0                           
7.000082178006942             5.713649879103688e-06         0.0                           
7.2500062187921035            7.769673020819822e-05         0.0                           
7.50007513573597              7.3101954221204265e-06        0.0                           
7.750007890949357             6.929823539066612e-05         0.0                           
8.000065998285004             9.106499230676291e-06         0.0                           
8.250009734338898             5.859529414205253e-05         0.0                           
8.500054483408189             1.1012366495893328e-05        0.0                           
8.750011655557017             4.5435285867585376e-05        0.0                           
9.00004050482177              1.2933681174768062e-05        0.0                           
9.250013562444803             2.9862534094382866e-05        0.0                           
9.500024169602442             1.4785000859784449e-05        0.0                           
9.750015373076462             1.2096266587326345e-05        0.0                           
10.000005719115093            1.6490916015887186e-05        0.0                           
1.7128687769153135e-05        0.29999224462651214           0.0                           
0.2499851726089839            0.3000182519023122            0.0                           
0.5000187430580514            0.2999705225552298            0.0                           
0.7499629870876429            0.3000196972710729            0.0                           
1.0000201616465612            0.2999475373504619            0.0                           
1.2499396347008194            0.3000210726137189            0.0                           
1.5000215239276995            0.2999234915340226            0.0                           
1.7499152525542276            0.3000224325052859            0.0                           
2.0000228961036846            0.2998984276857174            0.0                           
2.249889830169829             0.30002385844089713           0.0                           
2.500024363778991             0.29987221874732484           0.0                           
2.749863179729756             0.30002543846657337           0.0                           
3.0000260134848165            0.2998445573599626            0.0                           
3.2498349378465967            0.30002725123937446           0.0                           
3.5000104582069587            0.30008136015024794           0.0                           
3.750079229478484             0.3000124214627585            0.0                           
4.0000134895891915            0.30007433958845386           0.0                           
4.25007154773403              0.3000157729815818            0.0                           
4.500016975732489             0.3000652047399015            0.0                           
4.750061634543205             0.30001946895700726           0.0                           
5.000020745134075             0.300053667820364             0.0                           
5.250049267193132             0.30002332121951986           0.0                           
5.500024607609847             0.30003963891006924           0.0                           
5.750034420665402             0.3000271461444783            0.0                           
6.0000283875143               0.3000232114236089            0.0                           
6.25001723595329              0.30003079472313005           0.0                           
6.500031960158559             0.30000456300377276           0.0                           
6.7499979035002875            0.3000342799073556            0.0                           
7.000035404267957             0.2999839993092232            0.0                           
7.249976770005439             0.30003747827579474           0.0                           
7.500038453102692             0.2999618365500109            0.0                           
7.749954163706957             0.3000403332782472            0.0                           
8.000041248486182             0.2999384535000911            0.0                           
8.2499304275658               0.30004305444589346           0.0                           
8.500043956685722             0.2999140460601613            0.0                           
8.749905688514092             0.30004579125396746           0.0                           
9.000046736902393             0.29988861721572807           0.0                           
9.249879887252153             0.30004871850957476           0.0                           
9.500049767476154             0.29986198071959913           0.0                           
9.749852774418933             0.3000520116332316            0.0                           
10.000053217232706            0.2998337671225277            0.0                           
8.192526499223397e-05         0.6000156399323402            0.0                           
0.25001706957165937           0.6000778800932718            0.0                           
0.5000755581322041            0.6000201986630798            0.0                           
0.7500218834506219            0.600070225918872             0.0                           
1.0000671862875232            0.6000254479091246            0.0                           
1.2500273070610495            0.6000603047394557            0.0                           
1.500056448362751             0.6000311253689904            0.0                           
1.7500330629220666            0.6000478873547987            0.0                           
2.0000431832130836            0.6000369430507525            0.0                           
2.2500388665947453            0.6000329450892771            0.0                           
2.500027423306675             0.6000426398242894            0.0                           
2.750044477369761             0.600015612313091             0.0                           
3.000009340177052             0.6000480445078253            0.0                           
3.2500497775548407            0.599996135591268             0.0                           
3.499989238484863             0.6000531198670869            0.0                           
3.750054705303723             0.5999749074740396            0.0                           
3.9999674945807535            0.6000577010304228            0.0                           
4.250059130010648             0.5999522399959792            0.0                           
4.499944421962486             0.6000618962559665            0.0                           
4.750063250075293             0.5999284444895484            0.0                           
4.9999202937027505            0.6000659431914362            0.0                           
5.250067301594036             0.5999036713377244            0.0                           
5.499895193612437             0.6000700925197117            0.0                           
5.750071545651949             0.599877870789366             0.0                           
5.999869004505407             0.6000746177445563            0.0                           
6.25007625568385              0.5998507915504155            0.0                           
[...]
POINT_DATA  4141
SCALARS Con float 1
LOOKUP_TABLE default
0.0008793170660657799
0.0009683165192458708
0.001144638573562282
0.0013521209632241997
0.001588134494116074
0.0018536054706594315
0.0021492741579887077
0.0024753899621766397
0.0028316633889330415
0.003217255791711414
0.003630790317726197
0.0040703811806270754
0.004533677404432356
0.005017914375496882
0.005519962477423441
0.006036353437368527
0.00656328155182711
0.007096550311685643
0.007632914892658115
0.008179327964561518
0.008808085049926067
0.009443864643724778
0.01001159346988906
0.010550986587692502
0.011094755387145777
0.011640942854438374
0.01219008041909643
0.012743251288187568
0.013302509962095406
0.013870683548796121
0.014451268824052331
0.015048342188813731
0.015666483384763896
0.016310703913807834
0.016986376035690504
0.017699159099084438
0.018454915107093284
0.019259514433894245
0.02011711743370602
0.021005427891217027
0.0215163168101726
0.0008967266526741577
0.000987975207147773
0.001168026103680256
0.0013795635846784201
0.001619967040597893
0.001890090235130904
0.0021905991323784672
0.0025216638289758354
0.0028829145870455076
0.0032734354679595456
0.00369178013378524
0.004136007835658062
0.00460373798206185
0.0050922220514231535
0.005598434498628799
0.006119202893398844
0.0066514258863925495
0.007192849328067764
0.007743311643655815
0.00832005489647573
0.008909029758054776
0.009490443819021319
0.010057052899198556
0.010617877049507202
0.0111698981327406
0.01172033645194216
0.012271475441552245
0.012825670939272444
0.01338557105602161
0.013954357676289969
0.014535761865544231
0.015134036681728299
0.015753908074283385
0.016400516415827897
0.01707935178860773
0.01779618316979707
0.018556974573597566
0.019367692136113477
0.02023254629465881
0.021129558444138528
0.021646050921992965
0.0008879646801897195
0.0009790699640758289
0.0011593315248400152
0.001371587175789516
0.0016131657609230517
0.0018849063801579583
0.002187449272169696
0.002520935585903978
0.002884965996667347
0.0032785984865461096
0.0037003704873290184
0.004148345802071855
0.004620189120153946
0.005113275427425553
0.005624854379958692
0.006152310698816896
0.0066936697771927825
0.007248177113386754
0.007819027755771863
0.008388775332373265
0.008933388794292106
0.009481462588333442
0.010053913414190385
0.010622709166336715
0.011183865454067082
0.011738931625052936
0.012291665686654329
0.01284522842256762
0.013402887133785409
0.013968211475745581
0.01454519769693269
0.01513829902382396
0.015752413046724444
0.01639284448037736
0.017065253303722203
0.017775591849077833
0.018530025374492904
0.019334736090062386
0.020194169784129978
0.021086328074055357
0.021600061686493616
0.0008726713108607774
0.0009637573532146012
0.0011444290903358885
0.0013578534051971475
0.0016013643749620736
0.0018757663691385932
0.002181655547317529
0.002519121466811351
0.002887709696279934
0.003286423683077821
0.003713752241852063
0.004167723785614403
0.004645990370266017
0.0051459465692549325
0.005664887383565297
0.0062002068541342995
0.0067494952401374615
0.007310488342023326
0.00787591431512068
0.008436210875458225
0.008990936860626814
0.00954410924200406
0.01010109523347111
0.010663596423649755
0.011223102844041282
0.01177774684906008
0.012328806151084275
0.012879003623445136
0.013431600604398748
0.01399032662554348
0.014559372895723297
0.01514339830685343
0.015747516014988076
0.016377262734999256
0.017038553738213343
0.01773762522235245
0.018480957207469093
0.019275075842156018
0.020124787811117383
0.021008638393767657
0.02151832513281424
0.0008510761193795086
0.0009421326038608558
0.001123419960534996
0.0013385244648052394
0.0015847795806307006
0.0018629415031299593
0.0021735404559056746
0.0025165883049082646
0.0028915440403786746
0.0032973178500242638
0.003732299766221542
0.004194412807380481
0.004681190025104284
0.005189870408557975
0.005717497457260312
0.006260958075678419
0.006816872564935939
0.0073806530347293375
0.007946852501887673
0.008510931644497061
0.009070592562879766
0.009627479895322682
0.010183864009961551
0.010739351606671924
0.011292744590977554
0.011842022493731568
0.012387382053834745
0.012930646654020765
0.013474724753733236
0.014023268607235136
0.014580548605884255
0.015151390881159648
0.015741136068152483
0.016355598541204903
0.017001019516227487
0.017684010227894943
0.01841147555200074
0.01919041702564468
0.020026183756188552
0.020898186652151558
0.021402154244147643
0.0008230144757567072
0.0009140627233583852
0.0010961943235418847
0.001313517372509948
0.001563357553828081
0.0018464041468000836
0.0021630984137839386
0.002513346520228097
0.0028964867081176307
0.0033112930100815045
0.0037560009840180895
0.004228353797246181
0.004725664699517191
0.005244885766540145
0.005782659208622121
0.006335317777234028
0.006898745196664338
0.007468438514545177
0.00803987627407784
0.008609291683982409
0.009174652617358996
0.009735424126583283
0.010291793654147343
0.010843812763676164
0.011390809637429472
0.011932398068049669
0.012468871432789267
0.013001758781118164
0.013533692991800836
0.014068219828634976
0.014609647144370573
0.015162951603019623
0.01573371376125634
0.016328064978278656
0.016952635674771746
0.017614498098248044
0.01832109226874486
0.01908003507885978
0.019897405796470063
0.020753721892121685
0.021250020024504986
0.0007883424476500118
0.0008794142809523797
0.0010626471340851895
0.0012827581038150108
0.0015370554468988127
0.0018261416815843173
0.0021503456434295957
0.0025094404123319537
0.0029026105921702164
0.00332845353860966
0.0037849999600104343
0.0042697517859068305
0.004779733163979111
0.005311546053466377
0.005861419226312219
0.006425238365290639
0.006998617448136445
0.007577062965167625
0.008156321628076868
0.008732852445913944
0.009304126104582665
0.009868666248515385
0.010425710858674173
0.010974796111544477
0.011515675748355466
0.012048396870410122
0.01257369240924027
0.013093177451289437
0.013609457507780504
0.014126074380327097
0.014647417761833951
0.015178642344556167
0.01572560069842548
0.01629478666219241
0.016893282841818815
0.017528705781843894
0.018209137206411923
0.018942942911371708
0.01973708633105166
0.020573434726345617
0.02105989336807493
0.0007469641532775082
0.0008380997818047201
0.0010227108717428416
0.0012462047370130228
0.0015058586293358988
0.0018021676223707694
0.0021353260882150463
0.002504949820231411
0.0029100416837198008
0.0033489886358532587
0.003819576369978544
0.004319020603152435
0.004844013097277674
0.00539077939677161
0.005955146428442331
0.006532632304669069
0.007118577669951466
0.007708351220653683
0.00829762392437956
0.008882649963238391
0.009460473131249512
0.010028962982845457
0.01058671530049833
0.011132916175126593
0.01166725831419878
0.012190011456964918
0.012702141296341713
0.013205459168766594
0.01370269391119768
0.01419750461081763
0.014694442776287144
0.01519889848804149
0.01571704628774237
0.01625579573446024
0.016822745165974387
0.017426134400177214
0.018074785353724893
0.018777932430765844
0.019543572225275443
0.02035520356850403
0.020829381358401722
0.0006988829361283964
0.0007901205795982898
0.0009763903385775837
0.0012038716710854555
0.0014697941515913202
0.0017745247375112584
0.002118104503791781
0.0024999733654512365
0.0029189317322470183
0.0033731312347466736
0.0038600825344971184
0.0043766813526707
0.004919253929604906
0.0054836230557454785
0.006065198427842469
0.006659097923550523
0.007260309783070386
0.007863896808233739
0.00846522681123156
0.009060192915172521
0.009645375086523765
0.010218118587359947
0.010776535522157077
0.011319470794121987
0.011846488163466035
0.012357892675284603
0.012854797045772722
0.013339189681657303
0.013813986838552176
0.014283048157078218
0.014751163789254867
0.015224023527797037
0.015708180329535526
0.01621101458576644
0.016740700537075028
0.017306172345064284
0.017917079322310063
0.018583633833514357
0.019315011857164516
0.020096642214375834
0.02055577969173338
0.0006442601382792072
0.0007356190179704257
0.0009238014382148625
0.0011558544596022475
0.001428941135360522
0.001743281028395404
0.002098748426358164
0.002494596890627115
0.0029294131824570513
0.0034010983084332555
0.003906866179585504
0.00444326363485097
0.0050062158473265575
0.0055911008040669475
0.006192856309108307
0.006806122580060247
0.007425420080094021
0.008045355488912689
0.008660838390634782
0.009267282936608116
0.00986076950296679
0.010438151438137238
0.01099711062515628
0.011536181082990227
0.012054762533311711
0.012553142374747715
0.013032526051829058
0.013495070526023454
0.013943907662103572
0.014383152360546313
0.014817894657440819
0.015254182036154296
0.015698998215347246
0.016160243639530985
0.016646719231857204
0.017168111598933795
0.01773496965060833
0.018358578436331176
0.019049428244136038
0.01979518890379763
0.020236168943780084
0.0005834834878749235
0.0006749376076163419
0.0008652134023020391
0.0011023537975046558
0.0013834361567293828
0.001708516727035987
0.002077297723316984
0.0024888470584043536
0.0029415386921449347
0.0034330184293773288
0.003960188811815867
0.004519219813772847
0.005105591899755457
0.005714176469588152
0.006339356465466828
0.006975186634692722
0.007615588214337735
0.00825456668857531
0.008886435432868113
0.00950602497875808
0.010108859679944538
0.010691291106472534
0.011250587709067757
0.01178498893612268
0.012293736474812677
0.012777092930283456
0.013236354637564597
0.0136738589146923
0.014092985279433555
0.014498149472284408
0.014894792367770372
0.01528936747701705
0.015689331646593422
0.01610314222259103
0.016540261765912667
0.017011168279663574
0.01752736088828714
0.018101269728771557
0.018744814652410065
0.01944822288316895
0.019867542632498004
0.0005172435944607809
0.0006086839326021085
0.0008010923254091488
0.0010436963590116186
0.0013334711142763036
0.0016702998798540471
0.002053719594390852
0.002482628577453308
0.002955204496611383
0.0034688463754541763
0.0040201382616813575
0.004604844717120398
0.005217947462374165
0.005853729580979742
0.006505909501870779
0.0071678218473576255
0.007832636395080405
0.008493600828179109
0.00914428881611618
0.009778833839412826
0.010392131772923509
0.010980001191250068
0.011539297851149932
0.012067986827667345
0.012565179910673838
0.013031147574094648
0.013467313661086111
0.013876239240110754
0.014261600698897921
0.014628166484889822
0.014981777027595128
0.015329332587711318
0.015678793033450534
0.016039192216017534
0.01642066726258129
0.01683450016219336
0.017293161269920927
0.017810266861402635
0.01839925185584315
0.019053213709985726
0.01944697331439857
0.00044661483989666113
0.0005377976754206597
0.0007321425179103074
0.00098034906912719
0.0012792803888403584
0.0016286474935895139
0.002027846219760713
0.0024756423987808613
0.0029700548445198904
0.003508261240865762
0.004086529592591577
0.004700189885633422
0.005343658923472102
0.0060105267535159315
0.006693706889254503
0.00738564530862324
0.008078576040895699
0.008764805073141813
0.0094370005633497
0.01008846698676985
0.010713383789072984
0.01130699518943709
0.011865744983344159
0.012387357431638093
0.012870870794917274
0.013316633465810659
0.013726274006413476
0.014102656055952843
0.014449828404443768
0.014772979068061706
0.015078401251481403
0.015373477512646928
0.01566668694971251
0.01596763799996109
0.016287126783891152
0.01663721757990646
0.01703133444204882
0.017484279522442123
0.01801104756719953
0.01860790369082691
0.018971818029476867
0.00037313399615766546
0.0004636133667123568
0.0006593402471020517
0.0009129223717545838
0.0012211137455337253
0.0015834695072773405
0.0019992926581595782
0.002467282330062132
0.002985364421884211
0.00355054402308793
0.0041587889817445755
0.004804965521662602
0.005482844240885936
0.006185187957518399
0.0069039240603699994
0.0076303940870394915
0.008355663763428896
0.009070869168663008
0.009767570456491414
0.010438084403706195
0.011075771143525565
0.011675257617082649
0.01223258927162065
0.012745310425490413
0.013212481266916792
0.013634644623933989
0.014013758445313926
0.014353110482342214
0.014657230679935492
0.01493181486823915
0.015183670775885455
0.015420694980484267
0.01565188649456345
0.01588740011122732
0.016138639503646277
0.016418386205865724
0.016740951726180314
0.01712227261101466
0.017578895948148474
0.018110522466979896
0.018439963476292988
0.00029886444334193996
0.00038790848878200143
0.0005839520036254945
0.0008421572511373754
0.0011591924246521811
0.0015344946841605504
0.0019673547057976757
0.0024565095314972806
0.002999897508081465
0.0035944328141095166
0.004235818443011741
0.004918428700234546
0.005635286918548046
0.006378154452655096
0.007137734603256798
0.007903981309204682
0.008666489223607953
0.009414931331411863
0.010139504638019733
0.010831344699033454
0.011482875577983664
0.012088072057601288
0.012642623400847404
0.013144000378465548
0.013591437680838363
0.013985851209507068
0.014329713348171028
0.014626910089817832
0.01488260176812158
0.015103106019402906
0.015295817256371247
0.015469173144508477
0.015632674536156528
0.015796962368188283
0.015973952059877585
0.016177022333473935
0.016421245866190183
0.0167235789470856
0.017102054062746102
0.017560030017617457
0.01785010691481755
0.00022642796690941792
0.00031292139522649354
0.0005075268955997943
0.000768892083490879
0.0010936491722563844
0.0014811822005009112
0.0019308908565725343
0.002441707893282742
0.003011746133236792
0.0036379574901191066
0.00431584360851539
0.0050392616301947624
0.005800360435731468
0.006589670502598048
0.007396353187371258
0.008208595702693762
0.009014118352838942
0.009800745523940644
0.01055698357867418
0.011272549585476315
0.011938804156142764
0.012549057295420635
0.013098735023079148
0.013585412577215955
0.014008734891738258
0.014370254553661782
0.014673221671432854
0.014922359419231706
0.015123654980500108
0.015284189710870442
0.015412025747973993
0.015516160300944179
0.01560655387294187
0.015694235121202205
0.01579148295404245
0.015912085593915336
0.01607166929343383
0.01628802435884366
0.01658052889698008
0.016956379324621705
0.017202068702452153
0.00015897489232766937
0.00024131682769505566
0.00043185320941466795
0.0006940084770011846
0.0010244622449553876
0.0014226304841292597
0.0018881964789653916
0.0024205285232275376
0.003018155906841071
0.0036782623985492174
0.004396252955472462
0.00516544941979265
0.005976965551613206
0.006819795922203057
0.007681129786125817
0.008546871685450192
0.009402320869139152
0.01023293759038175
0.011025111820605954
0.011766851648589453
0.012448324273653838
0.013062207996644756
0.013603843162619745
0.014071197434070721
0.014464681671338716
0.014786864615140328
0.015042137771475181
0.015236378118990658
0.01537664766781841
0.015470958897001117
0.015528124576243136
0.015557702185039156
0.015570036504378815
0.015576400222772275
0.015589231182106898
0.01562246599163261
0.015691976105566618
0.015816065047300876
0.016015286428891874
0.016300782702210054
0.016497097134245676
0.00010006832527671167
0.00017607362726306387
0.0003588647290577593
0.0006183820262998493
0.0009514074482837228
0.0013574889766569556
0.0018368821246983367
0.002389741939323642
0.0030153598322922933
0.0037114360656359583
0.004473445241628126
0.005294173203438754
0.006163498225299733
0.0070684721793651374
0.00799372429220506
0.008922164933463385
0.009835919870867762
0.010717385815872319
0.011550277644882864
0.012320541775465706
0.013017037069694216
0.013631928432743542
0.014160785767704772
0.014602423620570622
0.014958545625850103
0.015233271497007483
0.015432623180906959
0.015564036028165359
0.01563594439173985
0.015657473799930807
0.01563825654268455
0.01558837589578424
0.015518436661487334
0.015439756052810977
0.01536466823363354
0.01530693932440586
0.015282291512318722
0.015309055509584954
0.015408444275472248
0.015595987030065638
0.01573825473946194
5.6306174434060166e-05
0.00012026241275140621
0.00029058904480560145
0.0005428771198636681
0.0008739822306304688
0.0012838727708862864
0.0017737894942022633
0.0023451420460367137
0.0029984641755634502
0.0037323854242295885
0.004542715393960043
0.005421744201661478
0.006357873817315283
0.007335672643809135
0.008336400474158782
0.009338980053052965
0.010321313107857851
0.011261770906012636
0.012140654623580802
0.01294142848665965
0.013651578950462182
0.014263028360904829
0.01477211265728514
0.015179197471878092
0.015488046956687828
0.015705069873338286
0.015838556674652435
0.015897995496727258
0.015893525256550512
0.015835556037007995
0.01573456516038926
0.01560106305678745
0.015445716018781383
0.015279610795300701
0.015114648596726581
0.01496405792309021
0.0148430248389218
0.014769380540498435
0.014764210692680262
0.01484644067556081
0.014930221638890469
2.6027927237493018e-05
7.695652126789839e-05
0.0002290743121747746
0.0004681751397987551
0.0007914128300024364
0.001199545897161157
0.001695264212097917
0.002281854024365238
0.002961754848767029
0.0037351328228553567
0.004598559893172525
0.00554395724117138
0.006557977763348899
0.007621989980185251
0.008712759740916684
0.009803815682792604
0.01086734682133433
0.011876361752533855
0.012806772956746055
0.013639089211890927
0.014359491417619106
0.014960206897220649
0.015439233203992502
0.01579956545279794
0.016048127518154612
0.01619460767506972
0.016250361003333227
0.01622749029310333
0.016138163794172482
0.015994186557474428
0.015806813079365437
0.015586774655735339
0.01534449094085583
0.015090439494987538
0.014835665201556407
0.014592421563041696
0.014374934805681258
0.014200309154120877
0.014088973035966425
0.014062588161262246
0.014083617264308639
0.0007238243297714922
0.0011284795107125367
0.002231099665957006
0.004680729992713464
0.005701845681828621
0.007966489447315766
0.009157934845051448
0.011494856031797996
0.01257215947866369
0.014402637025341824
0.01511947107091347
0.01569312038484664
0.016124703864586275
0.016421256723792174
0.01659406075674289
0.016656972782566767
0.015207397876131772
0.014872785062435528
0.013637191017063595
0.013428572644631268
0.013262426330216622
1.0939578730494022e-05
5.25263615908246e-05
0.00018593029116634906
0.00041026593094285394
0.0016289778175011015
0.0029397786844887297
0.0037571543223893175
0.006804742926474398
0.01034568529841403
0.013548792416078582
0.01662496324342669
0.016512984239075143
0.016335207110230187
0.016104612934643908
0.015832888978921923
0.015530573612993663
0.014536487410082146
0.014209357093540362
0.013904270661258622
0.013301352199295955
9.412612991862547e-06
3.9867039262675694e-05
0.00015393819332251813
0.00036155120401769043
0.000660761718219176
0.0010542456223338744
0.0015481758956355474
0.0021502922473056684
0.0028676714781128904
0.003704432969878631
0.004659475764883675
0.005724521139040378
0.00688281477073287
0.008108864714212662
0.009369484267129306
0.010626170031019124
0.011838526669672379
0.012968155446423749
0.013982277913951433
0.014856434609871082
0.015575859031754239
0.016135467418869523
0.01653870421484019
0.016795656056543398
0.01692088142657979
0.0169313300456276
0.016844602284721715
0.01667766897600124
0.016446068921685784
0.016163535030371656
0.01584196938193003
0.01549168455041572
0.01512184150670382
0.014741036235617462
0.014358011744220418
0.013982492140685879
0.013626165715733066
0.013303811098150453
0.013034662200013772
0.012842405224419904
0.012766261994687618
1.4571114751840935e-05
3.391905839059245e-05
0.00013000260575053648
0.00032161382033444474
0.0006069683598375853
0.0009894593841720206
0.0014768641439844455
0.002079050025080911
0.0028054604374314423
0.0036624238998721366
0.00465043060852132
0.005761673140133469
0.006978309872412469
0.00827196328660346
0.009604854806189599
0.010932671442631166
0.012208818807794853
0.013389292060167582
0.014437178735326402
0.01532590653572746
0.016040726406878116
0.016578406665625225
0.01694551822153501
0.017155899583094127
0.017227897253024167
0.01718184527801622
0.017038061855614586
0.016815466024374115
0.016530790375132456
0.016198294473255544
0.01582985959570457
0.01543535358029233
0.015023179921768359
0.014600956329817094
0.01417629726982399
0.013757706379934927
0.013355576335963818
0.012983424413943283
0.012658827412670746
0.012408622190887028
0.01230081379515026
2.444027134421591e-05
3.263823507714623e-05