# vtk DataFile Version 2.0
time_10.vtk
ASCII
DATASET UNSTRUCTURED_GRID
POINTS   4141  float 
0.00011529238074125822        7.33668831448638e-17          0.0                           
0.2499999999999994            0.00010955690744340599        0.0                           
0.500106297198804             4.606060549161996e-17         0.0                           
0.7499999999999999            9.888477812803408e-05         0.0                           
1.0000946958813228            1.710233691087534e-17         0.0                           
1.25                          8.5284179395301e-05           0.0                           
1.5000800433745616            5.122048663440162e-16         0.0                           
1.75                          6.847099406437292e-05         0.0                           
2.0000621406038492            4.77929690985512e-17          0.0                           
2.25                          4.841738304902529e-05         0.0                           
2.5000410440178147            -3.310823487295464e-17        0.0                           
2.75                          2.5349304271404758e-05        0.0                           
3.0000170778209387            -2.0337435749114722e-17       0.0                           
3.25                          1.4478192233736492e-17        0.0                           
3.4999904364607506            -1.4892948884920548e-16       0.0                           
3.75                          -2.89975662758922e-05         0.0                           
3.999961029833128             2.294583586328563e-17         0.0                           
4.25                          -5.9459692698043566e-05       0.0                           
4.499930033909661             6.272594607780509e-17         0.0                           
4.75                          -9.147647436365186e-05        0.0                           
4.999897524708456             -3.3236416692407053e-16       0.0                           
5.25                          -0.00012496536182772972       0.0                           
5.499863533236014             -6.805396719820018e-17        0.0                           
5.75                          -0.0001600286358650927        0.0                           
5.99982788415547              4.6219651279536e-19           0.0                           
6.25                          -0.00019698850584750962       0.0                           
6.499790185070396             -2.608950150119718e-16        0.0                           
6.75                          0.00011492256969149874        0.0                           
7.000112181765926             7.992818407892692e-06         0.0                           
7.250008668560731             0.00010593862769273858        0.0                           
7.500102390100569             1.0125924312082611e-05        0.0                           
7.7500109003888555            9.434137925040026e-05         0.0                           
8.000089810530023             1.2519958553368134e-05        0.0                           
8.250013356007587             7.968258887077712e-05         0.0                           
8.500074073853874             1.505757319583357e-05         0.0                           
8.750015914074904             6.176170006087695e-05         0.0                           
9.000055065426718             1.761734877532268e-05         0.0                           
9.25001845639302              4.063171467916003e-05         0.0                           
9.500032917716073             2.0091855846433187e-05        0.0                           
9.750020881740912             1.6565495680948406e-05        0.0                           
10.000007937432525            2.2393767048142468e-05        0.0                           
2.3220361326546833e-05        0.2999897575497476            0.0                           
0.24998023742969305           0.3000247148533561            0.0                           
0.5000253875898053            0.2999605131683721            0.0                           
0.7499503563786687            0.30002669743197147           0.0                           
1.000027337245193             0.2999295062857625            0.0                           
1.2499188274113873            0.30002859787146663           0.0                           
1.5000292249122364            0.2998969825996723            0.0                           
1.749885817622972             0.30003049062668175           0.0                           
2.000031137174874             0.2998629845628304            0.0                           
2.2498513008017436            0.30003247778014014           0.0                           
2.500033179712582             0.29982733855838856           0.0                           
2.7498150279933804            0.3000346651262446            0.0                           
3.0000354550808273            0.29978965017942255           0.0                           
3.249776538019865             0.30003714403380427           0.0                           
3.5000146879284944            0.30011108463759084           0.0                           
3.7501081095435604            0.3000173162057361            0.0                           
4.000018743237545             0.30010132123656674           0.0                           
4.250097465339653             0.30002178953356823           0.0                           
4.500023392485617             0.30008874442644684           0.0                           
4.750083854490779             0.30002671316221263           0.0                           
5.000028412290862             0.30007297782826436           0.0                           
5.250066985707006             0.30003184232628394           0.0                           
5.500033555878454             0.3000539034481784            0.0                           
5.750046825451957             0.3000369407654078            0.0                           
6.000038598606437             0.30003164199986704           0.0                           
6.250023557712409             0.30004182038220556           0.0                           
6.500043382769962             0.30000644087891326           0.0                           
6.749997452258389             0.300046472854765             0.0                           
7.000047971610351             0.2999786946295654            0.0                           
7.2499689472943825            0.30005077590885193           0.0                           
7.500052107929996             0.2999488092888507            0.0                           
7.749938454461024             0.3000546914407041            0.0                           
8.000055955504187             0.29991722935275733           0.0                           
8.24990637235265              0.3000584610007911            0.0                           
8.500059717059397             0.2998841817706615            0.0                           
8.749872844521718             0.3000622752447397            0.0                           
9.000063593716723             0.2998496547684671            0.0                           
9.249837780856577             0.300066349850317             0.0                           
9.500067802851687             0.29981340016991154           0.0                           
9.749800855610808             0.3000708932279521            0.0                           
10.000072542422345            0.29977494661553067           0.0                           
0.00011196100102806364        0.6000219699856566            0.0                           
0.2500238853326407            0.6001062989252179            0.0                           
0.5001030682399378            0.6000280682387795            0.0                           
0.7500303168241559            0.6000956903181851            0.0                           
1.000091504605618             0.6000350688121242            0.0                           
1.2500375454125658            0.6000820674300458            0.0                           
1.5000767971084632            0.6000426296016155            0.0                           
1.7500452091204324            0.6000651309363211            0.0                           
2.000058735849624             0.6000503761358412            0.0                           
2.250052939236048             0.6000448449258725            0.0                           
2.5000373654010426            0.6000579726286133            0.0                           
2.7500604273490845            0.6000213901091604            0.0                           
3.0000129180840176            0.6000651971223915            0.0                           
3.2500675143237787            0.599995095819782             0.0                           
3.499985788174846             0.6000719906676758            0.0                           
3.7500741275609224            0.5999664509225716            0.0                           
3.9999564487210377            0.600078200073815             0.0                           
4.25008015717395              0.5999358567373212            0.0                           
4.499925294770323             0.6000839683792236            0.0                           
4.750085843417062             0.5999036855994686            0.0                           
4.999892647975278             0.6000895882343021            0.0                           
5.250091481964477             0.5998701076074214            0.0                           
5.499858595871314             0.6000953743378032            0.0                           
5.7500973980037555            0.5998350432514927            0.0                           
5.999822974739693             0.6001016604538643            0.0                           
6.250103921386231             0.5997981627631658            0.0                           
[...]
POINT_DATA  4141
SCALARS Con float 1
LOOKUP_TABLE default
0.0017407572743735578
0.0019056343704080777
0.002233369950496845
0.002617415229030218
0.003052458148904552
0.003539926367062917
0.004080941438645586
0.00467576135688397
0.005323706066433971
0.0060231529519131554
0.006771570801745684
0.007565586870004612
0.008401080504191649
0.009273292870939432
0.01017693732770561
0.011106282669378843
0.012055219693656884
0.013017198630444293
0.013987534389966836
0.014972657949053787
0.01606374310932009
0.01717084233674722
0.01819794726162112
0.01918280908484326
0.020175573600960135
0.02117407034463835
0.022179932291781383
0.02319551757900141
0.024224627662084615
0.025272223086552484
0.026344266206880837
0.027447571974327307
0.02858967362692467
0.029778691976436324
0.031023203664146185
0.03233210532813457
0.03371446498129624
0.03517921365908348
0.03673238929739437
0.038334894784022286
0.03925375934922062
0.0017760016266721139
0.001945033819192594
0.0022796726529334815
0.0026711718269283044
0.003114238827006404
0.0036101682438459226
0.00415994660032977
0.004763688336031101
0.005420568316294863
0.006128823602700679
0.006885794863825495
0.007688003111798885
0.008531258063879702
0.009410794618558458
0.010321437219426847
0.011257818382326954
0.012214699166441634
0.013188104801478287
0.01417645822307082
0.015204574698648754
0.01625107319099916
0.017285750215297907
0.01830188850121187
0.019316387000356667
0.02032039407032112
0.021324831709855076
0.022333542584647897
0.023350682870509284
0.024380910894321536
0.025429719917530656
0.02650343814679752
0.027609166334235425
0.02875468073764767
0.02994832028269068
0.031198863237488685
0.032515395155881505
0.03390716058370016
0.03538325512433921
0.03694978106229123
0.03856810249429993
0.03949702713576878
0.001759990325423204
0.0019287834401776162
0.0022638520470953565
0.0026567147811705286
0.0031019812302100283
0.0036009155426400983
0.004154450996713991
0.004762640292688879
0.0054245920986228935
0.006138479059148089
0.006901588286241951
0.007710413311919595
0.008560789812361807
0.009448083139691931
0.010367453069898325
0.011314246876409757
0.01228473466590175
0.01327684393345333
0.014294445818070866
0.015310908322734195
0.016297821663129427
0.01729257980965473
0.01831824574816377
0.019340425308122553
0.02035555358617986
0.021365035835723068
0.022374564544550953
0.023389261322040826
0.024414604368116648
0.025456623225849424
0.026522035370056873
0.027618256483303488
0.028753351735024368
0.029935951598433454
0.031175146118839505
0.032480363379965585
0.03386122499834032
0.03532722230493547
0.03688483731885291
0.03849514176381165
0.039419277657386696
0.0017319368003213109
0.001900723613858142
0.0022366086116475227
0.0026316794074129207
0.003080549214934028
0.003584411714182986
0.004144109687598528
0.0047595882052339005
0.005429838008657009
0.0061529101256484866
0.0069259745600979295
0.007745423051803859
0.00860701861233186
0.00950609690187963
0.010437822623921622
0.011397502351430605
0.012380740754183168
0.013383466226721782
0.014394496642556367
0.015401195174309395
0.016402006789060095
0.017401938856455433
0.018408154511659613
0.019422125222051265
0.020433435029433105
0.02144042545173723
0.02244532099986235
0.023452641195999237
0.02446784280842722
0.025497191318321934
0.026547711385072965
0.0276271617534155
0.028743983953512242
0.029907226228699627
0.031126446014719613
0.032411592939280524
0.033772861152306766
0.0352203476136809
0.03676113025593107
0.038357115357875206
0.03927431040307417
0.0016922706415439053
0.0018610438355913203
0.0021981552064552143
0.0025964123835755058
0.0030504170323720392
0.0035612650289777964
0.004129665698939709
0.004755405732478424
0.005437298004793322
0.0061732006143012256
0.0069600784343175175
0.0077941056038873975
0.00867080670489215
0.009585227810340744
0.010532113207979801
0.011505997930777457
0.012501104092755098
0.013510049007587793
0.014524672242447852
0.015537996343374319
0.016546526513893524
0.017551934426182872
0.01855680276952947
0.019560734601133195
0.020562361353739827
0.021559628085511522
0.022553583672673714
0.023547567577099426
0.024546593484282127
0.025556864275598633
0.026585576569582756
0.027640805174477014
0.02873141473955156
0.02986696955483175
0.031057631720513065
0.032314041603878504
0.0336471646082604
0.03506794445251467
0.03658440571402881
0.03816002915745191
0.03906766382148629
0.0016406259558751912
0.0018094422454636061
0.0021482428592171964
0.0025507272132553912
0.0030114690536715265
0.0035314292311957513
0.004111138619107899
0.0047501717971974505
0.005447099989691365
0.0061995111942405815
0.007004069231104046
0.007856607992425239
0.008752254037598209
0.009685561881971467
0.010650627265941768
0.011641132743717376
0.012650198979483471
0.013670565209724928
0.014695077456534651
0.015717859087893273
0.01673545551903752
0.017746600844662144
0.018751215612219325
0.019749288984035537
0.020740217739732673
0.021724007682089257
0.022701813729599125
0.023676648760041843
0.02465320445840573
0.025637604063238808
0.026637181224275008
0.027660329105636403
0.02871638237839309
0.02981551088220968
0.03096861038411737
0.03218718048342459
0.0334831732295333
0.03486865768977186
0.03635300171951087
0.037901650449633034
0.03879632125487249
0.0015766485358651783
0.0017455905946847914
0.0020866111515791203
0.0024944392367933534
0.0029635998274858857
0.0034948796001548
0.004088584827773816
0.004744024871315333
0.00545946710941616
0.006232155268378912
0.007058362946124475
0.007933478108685056
0.008852111566208435
0.009808216073189453
0.010795199452233522
0.011806013862136765
0.012833310772627228
0.013869709380318637
0.014908326998635788
0.015943403743445148
0.016970730651928657
0.01798769529443416
0.018992878758686747
0.01998555852454642
0.020965598539713234
0.02193355368228838
0.02289114933649805
0.0238415356262703
0.024789424884124927
0.025741012913269096
0.026703849752521745
0.02768670777603722
0.02869946432822458
0.0297529925284946
0.03085905177951605
0.0320301693480145
0.03327949738277049
0.034620495804735134
0.03606415212474773
0.037578250727914084
0.03845612301460093
0.001500044516470127
0.0016692198802920242
0.0020130480373363835
0.0024274078291594277
0.0029067463256052146
0.003451634786118839
0.004062110438483188
0.004737168705284127
0.005474717590986574
0.006271591643893273
0.007123598699242741
0.00802559691173415
0.008971598311969876
0.009954893375515889
0.010968192729569885
0.012003802679327654
0.013053856560726565
0.014110646045871937
0.015167025581713718
0.016216819754021502
0.017255110060395908
0.018278310295885763
0.01928406582622205
0.020271104653012528
0.02123914694528672
0.02218899061322975
0.023122659158300522
0.024043586054236347
0.02495670398854114
0.02586845527516399
0.026786730872824516
0.02772078192815853
0.028681123848995543
0.02967943985754774
0.030728482206186833
0.03184196559716964
0.03303443810149641
0.034320978040645336
0.035714458100463156
0.03718549027824953
0.03804219348149521
0.0014106719885908139
0.0015801975281102606
0.0019274537224319493
0.0023495814479004046
0.0028409139354405766
0.0034017647671837252
0.004031862063852473
0.004729846778455735
0.0054932227088795695
0.006318362713098273
0.007200547136067828
0.008134035150650287
0.009112169728366813
0.0101275164601889
0.011172039838894553
0.012237323614812468
0.01331484619184495
0.01439630622447287
0.015473975337535278
0.016541024287709146
0.017591767014241914
0.018621791941202157
0.019627994686311344
0.020608560566663072
0.02156296271657267
0.022491997116233585
0.023397865164421706
0.024284257394656034
0.02515641613457285
0.02602115033838155
0.02688681003577716
0.02776323188002038
0.028661670972088354
0.02959472675464577
0.030576264544530052
0.03162132939476686
0.03274603745825766
0.033967294598928735
0.03530012942159765
0.036718510923133885
0.03754904628708091
0.0013086483930656435
0.0014786231560388835
0.0018299128185293285
0.00226104524621126
0.0027661985524616664
0.003345387707704379
0.0039979996203620685
0.004722292614271185
0.005515335785381543
0.006373001834241585
0.007289993345869474
0.008259907185071975
0.009275341725728591
0.010328050503494952
0.011409144799954158
0.012509346516481562
0.013619286951137654
0.014729838314940446
0.015832451055993235
0.016919463098617273
0.01798434911678595
0.019021894255094287
0.02002829753998168
0.021001228776842695
0.021939864738358596
0.02284492715432985
0.023718724827756874
0.02456519570970058
0.025389934527022092
0.026200199334677775
0.027004894850322744
0.02781453889813946
0.028641218797240988
0.029498543439800445
0.030401592379111764
0.0313668588954504
0.032412172288878716
0.03355645197262831
0.03481713874153203
0.03617211915414303
0.036970780776211055
0.0011944780851496249
0.001364939486860287
0.00172077463883472
0.0021620685398700736
0.002682800760879795
0.003282651550047707
0.003960647481313278
0.004714653825727043
0.005541293259287018
0.006435916018599507
0.007392606583609026
0.008404236071399038
0.009462568687031771
0.010558427375009723
0.011681919709231355
0.012822719740437322
0.013970394750587213
0.015114757799933947
0.01624622064155856
0.01735611920677618
0.018436988789438714
0.019482776278765303
0.02048898983206679
0.021452796102296376
0.022373080560435736
0.023250484152955015
0.024087425939695546
0.02488811442407523
0.02565854848604025
0.026406507410100217
0.027141532278977098
0.02787490254948502
0.0286196125545313
0.029390350945303484
0.03020348332482486
0.031077034207686392
0.03203065312567208
0.03308542135757844
0.03426141690884887
0.03554102058289822
0.03630134009155575
0.0010691982061124844
0.001240056821784855
0.0016007381527907594
0.002053147983473167
0.002591027045742121
0.0032136949258431413
0.0039198187241476145
0.004706885379255288
0.005571084549460566
0.006507241809193395
0.007508793738502094
0.008567819454005338
0.009675140890966459
0.010820498527697018
0.011992802122932878
0.013180448106127146
0.014371687105229545
0.015555018221361057
0.01671958250270539
0.017855528443005163
0.018954327303757755
0.02000902476037381
0.021014425061548134
0.021967212599729356
0.022866020933433137
0.02371146175141653
0.024506125462941793
0.0252545633695862
0.025963259573675623
0.026640599397089446
0.02729684055019213
0.027944092904770238
0.02859631130647957
0.029269303757399747
0.029980753997694176
0.03075025341164401
0.03159932612597577
0.032551308545210926
0.033629089783006265
0.03482012072413706
0.035534845561389396
0.0009345375647757816
0.00110548553481537
0.0014709357169579787
0.0019350401343093877
0.0024912715814561846
0.0031385808266713422
0.0038753060077598386
0.004698605771063229
0.005604284430349492
0.006586667456971338
0.007638527238491805
0.008751080735877492
0.009914076562455793
0.011115980473246842
0.012344257778201475
0.013585740171222892
0.014827054572447028
0.016055084253060157
0.017257429197562808
0.018422834132081435
0.01954155837753386
0.02060567071617493
0.02160926235144747
0.022548580380098153
0.023422091230979054
0.024230488021930223
0.02497665782536866
0.02566562470435121
0.026304483546275757
0.026902337658076803
0.027470251398821855
0.028021226594097986
0.02857020903342618
0.029134127707939973
0.029731965404342354
0.030384854049781602
0.03111617709114672
0.03195154493258001
0.032916758894538795
0.034004891849416054
0.03466600961347076
0.0007930778405387148
0.0009634661404698917
0.0013330060842476868
0.0018087749975674828
0.002383971211914749
0.003057196618460179
0.0038265330224564404
0.0046889098499287955
0.0056398411247798215
0.006673213788848162
0.007781138666349666
0.008953895741527733
0.010179999083045134
0.011446393851322248
0.012738782868357048
0.014042065069020043
0.015340855137328656
0.016620044660190784
0.01786536166642817
0.019063887788009267
0.02020449993287643
0.021278214395146357
0.022278423847694104
0.023201029461065115
0.024044480132880255
0.02480973753007925
0.025500189426577377
0.026121534730988466
0.02668166257062273
0.027190545231776768
0.027660161350864007
0.028104462074201524
0.02853938882832888
0.028982946893154983
0.02945533416313771
0.029979117504798928
0.030579435204168504
0.03128409667043421
0.03212182106417087
0.033091803303481764
0.033690627517391825
0.0006483969810816689
0.0008170792751749865
0.0011891426826201462
0.0016756403287495197
0.0022695275068570584
0.0029691167609968206
0.00377236368597781
0.004676135022949404
0.005675815992930423
0.006764969391784985
0.007935074390044376
0.009175393500672108
0.010473003713172589
0.011813009153123255
0.013178931466128082
0.014553252964236275
0.015918069492649855
0.017255797738723096
0.018549877357367673
0.01978541218577916
0.020949705701639232
0.02203266151618927
0.023027037133637396
0.023928555697522676
0.024735893913005402
0.02545057382834514
0.02607679102124462
0.026621213004422047
0.027092779343231156
0.027502531057482432
0.02786349123142072
0.028190613475875377
0.028500809006630965
0.028813058538328412
0.029148610198354536
0.029531257960249815
0.02998767834722205
0.030547687939161072
0.031242819074992077
0.03207880589956537
0.03260613851293296
0.0005051639276997533
0.0006703084383903754
0.0010420978362537779
0.0015371282426982513
0.0021481951149136137
0.0028734322329142916
0.0037108732928807847
0.004657582955501231
0.005709076176484852
0.006858781860728965
0.008097616795081107
0.009413738725093075
0.01079252794562683
0.012216822284943724
0.013667400475056792
0.015123678749285925
0.016564558773176676
0.017969347486862547
0.019318663177860275
0.0205952484883498
0.02178462795144185
0.02287557129212787
0.02386034975089572
0.02473479660201556
0.025498202187822963
0.026153086144150402
0.0267048952796276
0.02716167531372991
0.02753376006267636
0.02783351429912963
0.02807515790793898
0.028274690515188765
0.028449928449353856
0.028620660308242882
0.028808923803547333
0.02903940485905331
0.02933994663776235
0.029742045613274024
0.030279809719852332
0.030965850022243526
0.0314122432397713
0.0003691319883132659
0.0005280148950846966
0.0008951239619740472
0.0013948405207255255
0.002019952017973739
0.002768564059581258
0.0036390917756977783
0.00462920710389893
0.005734952112154164
0.006949918069950807
0.008264585658050364
0.009665914178644262
0.011137250318530002
0.012658593765651231
0.014207215575353335
0.015758579739477988
0.017287477991213225
0.018769260157540858
0.020181033269924497
0.021502713253092002
0.022717840453467676
0.02381410792365675
0.024783591741177866
0.025622708503499975
0.026331952089871654
0.02691547740617781
0.027380603781529872
0.027737306805912576
0.02799775724156284
0.02817595280901504
0.028287474520986677
0.028349387159780994
0.028380293161122363
0.02840054274584859
0.02843260066028597
0.028501571662072116
0.028635899114889403
0.028868170320483874
0.029234767431897377
0.029755403319414574
0.03011150244386018
0.00024698944590399675
0.0003957786373337437
0.0007518213028933135
0.0012503984658303418
0.001884393180355744
0.002652065558646323
0.0035527343334044088
0.004585294002055454
0.005746892053332488
0.0070317251128962305
0.00843004963992973
0.009927533943154428
0.011505054338384158
0.013138998275365129
0.01480207635241985
0.01646457484277924
0.01809591575367143
0.019666345828501044
0.021148561111024956
0.022519092383922863
0.023759322656957634
0.02485607103113406
0.025801741074485383
0.026594087279017808
0.027235690225748593
0.02773324956206573
0.02809680402499892
0.028338975587472448
0.028474314342847418
0.028518798024536458
0.028489518394004633
0.02840456902425632
0.028283136170481026
0.028145786955142183
0.028014946281206782
0.027915559008396176
0.027875938074484078
0.027928847999860302
0.028111978592137002
0.02845297097336346
0.028710057508202942
0.0001487812272012818
0.0002795306498478886
0.0006160674497794144
0.0011054329754251256
0.001740555029434647
0.0025204050071003918
0.003445975240551057
0.004518214323026943
0.005736191086479895
0.007095360061515846
0.00858610665247015
0.01019274225399207
0.011893116328096509
0.013658954682977559
0.015456945381863929
0.017250480789327484
0.019001856152974866
0.020674646382094784
0.02223595763477844
0.023658282557625556
0.024920770393175688
0.026009829511119104
0.026919087153639245
0.027648814664051842
0.028204978339102425
0.028598091403104136
0.028842031552858284
0.0289529573362525
0.028948418266212257
0.028846714767396767
0.028666531725189598
0.028426845731242722
0.02814709233759171
0.027847573258217063
0.02755008428836882
0.027278745491787548
0.02706103062067183
0.026928892857650762
0.026919824724995434
0.027067531933251024
0.027217363946856834
7.682629999076705e-05
0.00018551182753660605
0.0004919254567683079
0.0009612579229011047
0.0015868843432537954
0.0023692553750373287
0.0033119058857211704
0.004418968472712779
0.005692579429286239
0.007130428451495754
0.008723619848491052
0.010455119584075403
0.012299051174520167
0.014221044269031737
0.016179704248887802
0.018129088377741426
0.020021882134410647
0.021812829833977868
0.023461924562026146
0.0249369265186326
0.02621492746012931
0.027282871576126338
0.028137120754745473
0.028782282947265862
0.029229583870525582
0.029495066197366193
0.02959785621334078
0.02955867357961813
0.029398688152781276
0.029138766904719195
0.028799107815128188
0.02839923069673023
0.027958283657846923
0.027495625798442988
0.027031656160457246
0.02658887291348828
0.026193141645740912
0.025875203578311926
0.02567135551423071
0.025620016814491643
0.025654822443018428
0.0014627091088523245
0.0022445977321840973
0.0043461013163469155
0.008915699468461066
0.010789720500812613
0.01489587246503561
0.017033411933655915
0.02119264882621853
0.023099726410366856
0.026334532987914265
0.027602628050020738
0.028619776318306245
0.02938757089226577
0.029917379919056273
0.03022777445550259
0.030341909353325553
0.027703135700767382
0.027091081469223104
0.0248334365143404
0.02445155312080235
0.024140611817395755
3.769106422031977e-05
0.00012892558363053366
0.00040402886196259805
0.0008500204888379635
0.003202918102093276
0.005680351766530113
0.007206243641289956
0.01279730108493074
0.019152045291823468
0.024825780573551906
0.030285176910148114
0.030083332052059146
0.029761175948990675
0.029341798033316827
0.028846322600941426
0.028294081591991142
0.026476106904652158
0.025878286574718117
0.02532114312019869
0.024215757819965596
2.5997787998166086e-05
9.636050567180309e-05
0.000337247969451903
0.000754383402332585
0.001343224045049603
0.0021079109324416076
0.003058331049097695
0.004206425395581871
0.005562056657658251
0.007128949460226737
0.008900926005241491
0.01085894713482904
0.01296952372463474
0.015185006914749182
0.01744600734213467
0.019685781829562293
0.02183597127232227
0.0238327298264637
0.025622188438546294
0.02716438081194495
0.02843515602879508
0.02942605803717434
0.03014253143099781
0.030601030558749
0.030825658243175524
0.030844876728140725
0.030688678358795816
0.03038642924870305
0.029965448764892204
0.029450280395612417
0.02886255052253029
0.028221294412965486
0.027543639739053303
0.02684576639272453
0.026144098316901346
0.025456714349479687
0.024805017973548303
0.024215635831208233
0.023722718469638335
0.023367781057297993
0.023224475985563528
2.788378075386796e-05
7.811189532243613e-05
0.00028676967404771676
0.0006759747166386405
0.001241570061320663
0.001989154432999636
0.0029316452690920118
0.004084828499674734
0.0054626471403519975
0.007072371938729591
0.008910013291416136
0.010956546201769226
0.013175705928580831
0.015514070157406074
0.01790384034463948
0.020268188614394663
0.02252839852403293
0.024611527065832372
0.02645716133298297
0.028022105922859714
0.02928240446689229
0.030232743045305648
0.030883792716929533
0.03125831153811362
0.03138684464005105
0.03130370437602268
0.031043674105050576
0.030639637861357514
0.030121145763366615
0.02951380288002542
0.028839314264141012
0.028116016016481667
0.02735975140965384
0.026584995453128177
0.025806176207766277
0.025039194114849773
0.024303120723463675
0.0236222971559926
0.02302782041201282
0.02256702738220759
0.02236619897752406
3.9671599744265725e-05
6.942258256583649e-05
0.0002441551926953848
0.0006027789955877035
0.0011419692383104166
0.0018689570273487971
0.0028000546540784413
0.003955513218193102
0.005354094307032416
0.007007401620190096
0.008914295524497243
0.01105609553230093